ChemID,source_casrn,CAS,SMILES,NAME,preferred_name,iupac,MPID,dsstox_substance_id,Canonical_QSARr,InChI_Code_QSARr,InChI Key_QSARr,Salt_Solvent,BP,ID
102930,625-80-9,625-80-9,CC(C)SC(C)C,"2,4-DIMETHYL-3-THIAPENTANE","Propane, 2,2'-thiobis-",2-propan-2-ylsulfanylpropane,21917,DTXSID0060808,CC(C)SC(C)C,"InChI=1S/C6H14S/c1-5(2)7-6(3)4/h5-6H,1-4H3",XYWDPYKBIRQXQS-UHFFFAOYSA-N,?,120.1,102930
102931,625-82-1,625-82-1,Cc1c[nH]c(C)c1,"1H-PYRROLE, 2,4-DIMETHYL-","2,4-Dimethyl-1H-pyrrole","2,4-Dimethyl-1H-pyrrole",21918,DTXSID80211551,Cc1c[nH]c(C)c1,"InChI=1S/C6H9N/c1-5-3-6(2)7-4-5/h3-4,7H,1-2H3",MFFMQGGZCLEMCI-UHFFFAOYSA-N,?,168.0,102931
102932,625-84-3,625-84-3,Cc1ccc(C)[nH]1,"2,5-DIMETHYLPYRROLE","2,5-Dimethylpyrrole","2,5-Dimethyl-1H-pyrrole",21919,DTXSID40211552,Cc1ccc(C)[nH]1,"InChI=1S/C6H9N/c1-5-3-4-6(2)7-5/h3-4,7H,1-2H3",PAPNRQCYSFBWDI-UHFFFAOYSA-N,?,171.0,102932
102934,625-92-3,625-92-3,Brc1c[n]cc(Br)c1,"3,5-DIBROMOPYRIDINE","3,5-Dibromopyridine","3,5-Dibromopyridine",21921,DTXSID3073921,Brc1c[n]cc(Br)c1,InChI=1S/C5H3Br2N/c6-4-1-5(7)3-8-2-4/h1-3H,SOSPMXMEOFGPIM-UHFFFAOYSA-N,?,222.0,102934
102935,625-95-6,625-95-6,Cc1cc(I)ccc1,"Benzene, 1-iodo-3-methyl-",m-Iodotoluene,1-Iodo-3-methylbenzene,21922,DTXSID5060809,Cc1cc(I)ccc1,"InChI=1S/C7H7I/c1-6-3-2-4-7(8)5-6/h2-5H,1H3",VLCPISYURGTGLP-UHFFFAOYSA-N,?,213.0,102935
102937,626-00-6,626-00-6,Ic1cc(I)ccc1,"1,3-DIIODOBENZENE","Benzene, 1,3-diiodo-","1,3-DIIODOBENZENE",21923,DTXSID9060811,Ic1cc(I)ccc1,InChI=1S/C6H4I2/c7-5-2-1-3-6(8)4-5/h1-4H,SFPQFQUXAJOWNF-UHFFFAOYSA-N,?,285.0,102937
102940,626-19-7,NOCAS_870718,O=Cc1cc(ccc1)C=O,"1,3-Diformylbenzene",,,21925,DTXSID30870718,O=Cc1cc(ccc1)C=O,InChI=1S/C8H6O2/c9-5-7-2-1-3-8(4-7)6-10/h1-6H,IZALUMVGBVKPJD-UHFFFAOYSA-N,?,246.0,102940
102941,626-23-3,NOCAS_870719,CC(CC)NC(C)CC,"2-Butanamine, N-(1-methylpropyl)-",,,21926,DTXSID90870719,CC(CC)NC(C)CC,"InChI=1S/C8H19N/c1-5-7(3)9-8(4)6-2/h7-9H,5-6H2,1-4H3",OBYVIBDTOCAXSN-UHFFFAOYSA-N,?,135.0,102941
102942,626-26-6,NOCAS_870720,CC(CC)SC(C)CC,"BUTANE, 2,2'-THIOBIS-",,,21927,DTXSID00870720,CC(CC)SC(C)CC,"InChI=1S/C8H18S/c1-5-7(3)9-8(4)6-2/h7-8H,5-6H2,1-4H3",IEBAOPMEYUWQPD-UHFFFAOYSA-N,?,165.0,102942
102944,626-31-3,NOCAS_871796,CC(CC)OC(=O)CCC(=O)OC(C)CC,"BUTANEDIOIC ACID, BIS(1-METHYLPROPYL) ESTER",,,21929,DTXSID40871796,CC(CC)OC(=O)CCC(=O)OC(C)CC,"InChI=1S/C12H22O4/c1-5-9(3)15-11(13)7-8-12(14)16-10(4)6-2/h9-10H,5-8H2,1-4H3",PJZURRKQOJYGAU-UHFFFAOYSA-N,?,256.0,102944
102945,626-33-5,626-33-5,CCCC(=O)CC(C)C,"4-Heptanone, 2-methyl-","4-Heptanone, 2-methyl-",2-Methylheptan-4-one,21930,DTXSID4060816,CCCC(=O)CC(C)C,"InChI=1S/C8H16O/c1-4-5-8(9)6-7(2)3/h7H,4-6H2,1-3H3",AKRJXOYALOGLHQ-UHFFFAOYSA-N,?,155.0,102945
102946,626-38-0,626-38-0,CCCC(C)OC(C)=O,2-PENTANOL ACETATE,Pentan-2-yl acetate,pentan-2-yl acetate,21931,DTXSID8052306,CCCC(C)OC(C)=O,"InChI=1S/C7H14O2/c1-4-5-6(2)9-7(3)8/h6H,4-5H2,1-3H3",GQKZRWSUJHVIPE-UHFFFAOYSA-N,?,130.5,102946
102948,626-41-5,626-41-5,Oc1cc(Br)cc(Br)c1,"3,5-DIBROMOPHENOL","Phenol, 3,5-dibromo-","3,5-DIBROMOPHENOL",21933,DTXSID70211646,Oc1cc(Br)cc(Br)c1,"InChI=1S/C6H4Br2O/c7-4-1-5(8)3-6(9)2-4/h1-3,9H",PZFMWYNHJFZBPO-UHFFFAOYSA-N,?,274.0,102948
102949,626-43-7,626-43-7,Nc1cc(Cl)cc(Cl)c1,"3,5-DICHLOROANILINE","3,5-Dichloroaniline","3,5-dichloroaniline",21934,DTXSID7030307,Nc1cc(Cl)cc(Cl)c1,"InChI=1S/C6H5Cl2N/c7-4-1-5(8)3-6(9)2-4/h1-3H,9H2",UQRLKWGPEVNVHT-UHFFFAOYSA-N,?,261.0,102949
102950,626-55-1,626-55-1,Brc1c[n]ccc1,3-BROMOPYRIDINE,3-Bromopyridine,3-Bromopyridine,21935,DTXSID9060819,Brc1c[n]ccc1,InChI=1S/C5H4BrN/c6-5-2-1-3-7-4-5/h1-4H,NYPYPOZNGOXYSU-UHFFFAOYSA-N,?,173.0,102950
102952,626-60-8,626-60-8,Clc1c[n]ccc1,3-CHLOROPYRIDINE,3-Chloropyridine,3-chloropyridine,21937,DTXSID3052309,Clc1c[n]ccc1,InChI=1S/C5H4ClN/c6-5-2-1-3-7-4-5/h1-4H,PWRBCZZQRRPXAB-UHFFFAOYSA-N,?,148.0,102952
102953,626-61-9,626-61-9,Clc1cc[n]cc1,4-CHLOROPYRIDINE,4-Chloropyridine,4-chloropyridine,21938,DTXSID0052671,Clc1cc[n]cc1,InChI=1S/C5H4ClN/c6-5-1-3-7-4-2-5/h1-4H,PVMNPAUTCMBOMO-UHFFFAOYSA-N,?,147.5,102953
102954,626-67-5,626-67-5,CN1CCCCC1,N-METHYLPIPERIDINE,"Piperidine, 1-methyl-",1-Methylpiperidine,21939,DTXSID8060822,CN1CCCCC1,"InChI=1S/C6H13N/c1-7-5-3-2-4-6-7/h2-6H2,1H3",PAMIQIKDUOTOBW-UHFFFAOYSA-N,?,107.0,102954
102956,626-82-4,626-82-4,CCCCCC(=O)OCCCC,N-BUTYL HEXANOATE,"Hexanoic acid, butyl ester",Butyl hexanoate,21941,DTXSID8060824,CCCCCC(=O)OCCCC,"InChI=1S/C10H20O2/c1-3-5-7-8-10(11)12-9-6-4-2/h3-9H2,1-2H3",RPRPDTXKGSIXMD-UHFFFAOYSA-N,?,208.0,102956
102957,626-85-7,626-85-7,CCCCOS(=O)OCCCC,"Sulfurous acid, dibutyl ester","Sulfurous acid, dibutyl ester",Dibutyl sulfite,21942,DTXSID3060825,CCCCOS(=O)OCCCC,"InChI=1S/C8H18O3S/c1-3-5-7-10-12(9)11-8-6-4-2/h3-8H2,1-2H3",FEYYOXFAQQJEIG-UHFFFAOYSA-N,?,230.0,102957
102958,626-86-8,NOCAS_862319,CCOC(=O)CCCCC(O)=O,"HEXANEDIOIC ACID, MONOETHYL ESTER",,,21943,DTXSID70862319,CCOC(=O)CCCCC(O)=O,"InChI=1S/C8H14O4/c1-2-12-8(11)6-4-3-5-7(9)10/h2-6H2,1H3,(H,9,10)",UZNLHJCCGYKCIL-UHFFFAOYSA-N,?,285.0,102958
102960,626-89-1,626-89-1,CC(C)CCCO,4-METHYL-1-PENTANOL,4-Methylpentan-1-ol,4-methylpentan-1-ol,21945,DTXSID0044313,CC(C)CCCO,"InChI=1S/C6H14O/c1-6(2)4-3-5-7/h6-7H,3-5H2,1-2H3",PCWGTDULNUVNBN-UHFFFAOYSA-N,?,151.9,102960
102961,626-90-4,626-90-4,CC(C)CC=NO,3-Methyl-butyraldehyde oxime,,,21946,DTXSID30878759,CC(C)CCN=O,"InChI=1S/C5H11NO/c1-5(2)3-4-6-7/h5H,3-4H2,1-2H3",QFCZWYVVTVKGKT-UHFFFAOYSA-N,?,161.3,102961
102962,626-91-5,626-91-5,COCCC(C)C,"BUTANE, 1-METHOXY-3-METHYL-","Butane, 1-methoxy-3-methyl-",1-methoxy-3-methylbutane,21947,DTXSID00211654,COCCC(C)C,"InChI=1S/C6H14O/c1-6(2)4-5-7-3/h6H,4-5H2,1-3H3",ZQAYBCWERYRAMF-UHFFFAOYSA-N,?,91.0,102962
102964,626-93-7,NOCAS_862320,CCCCC(C)O,2-HEXANOL,,,21949,DTXSID80862320,CCCCC(C)O,"InChI=1S/C6H14O/c1-3-4-5-6(2)7/h6-7H,3-5H2,1-2H3",QNVRIHYSUZMSGM-UHFFFAOYSA-N,?,136.0,102964
102965,626-94-8,NOCAS_870726,CC(O)CCC=C,5-HEXEN-2-OL,,,21950,DTXSID60870726,CC(O)CCC=C,"InChI=1S/C6H12O/c1-3-4-5-6(2)7/h3,6-7H,1,4-5H2,2H3",LNPNXWKVAFKIBX-UHFFFAOYSA-N,?,139.0,102965
102966,626-95-9,24347-57-7,C[C@H](O)CCCO,"1,4-Dihydroxypentane","(S)-1,4-pentanediol",C5H12O2,21951,DTXSID20428489,CC(O)CCCO,"InChI=1S/C5H12O2/c1-5(7)3-2-4-6/h5-7H,2-4H2,1H3",GLOBUAZSRIOKLN-UHFFFAOYSA-N,?,202.0,102966
102968,627-02-1,627-02-1,CCOCC(C)C,"PROPANE, 1-ETHOXY-2-METHYL-",1-Ethoxy-2-methylpropane,1-Ethoxy-2-methylpropane,21953,DTXSID4074934,CCOCC(C)C,"InChI=1S/C6H14O/c1-4-7-5-6(2)3/h6H,4-5H2,1-3H3",RQUBQBFVDOLUKC-UHFFFAOYSA-N,?,81.0,102968
102969,627-03-2,627-03-2,CCOCC(O)=O,"Acetic acid, ethoxy-",Ethoxyacetic acid,ethoxyacetic acid,21954,DTXSID7031294,CCOCC(O)=O,"InChI=1S/C4H8O3/c1-2-7-3-4(5)6/h2-3H2,1H3,(H,5,6)",YZGQDNOIGFBYKF-UHFFFAOYSA-N,?,206.5,102969
102970,627-05-4,627-05-4,CCCC[N+]([O-])=O,1-NITROBUTANE,1-Nitrobutane,1-nitrobutane,21955,DTXSID8020967,CCCC[N+]([O-])=O,"InChI=1S/C4H9NO2/c1-2-3-4-5(6)7/h2-4H2,1H3",NALZTFARIYUCBY-UHFFFAOYSA-N,?,153.0,102970
102972,627-11-2,627-11-2,O=C(Cl)OCCCl,CHLOROETHYL CHLOROFORMATE,2-Chloroethyl chloroformate,2-Chloroethyl chloroformate,21957,DTXSID2060832,O=C(Cl)OCCCl,InChI=1S/C3H4Cl2O2/c4-1-2-7-3(5)6/h1-2H2,SVDDJQGVOFZBNX-UHFFFAOYSA-N,?,155.0,102972
102973,627-12-3,627-12-3,CCCOC(N)=O,O-PROPYLCARBAMATE,Propyl carbamate,Propyl carbamate,21958,DTXSID7060833,CCCOC(N)=O,"InChI=1S/C4H9NO2/c1-2-3-7-4(5)6/h2-3H2,1H3,(H2,5,6)",YNTOKMNHRPSGFU-UHFFFAOYSA-N,?,196.0,102973
102974,627-13-4,627-13-4,CCCO[N+]([O-])=O,1-PROPYLNITRATE,n-Propyl nitrate,Propyl nitrate,21959,DTXSID2060834,CCCO[N+]([O-])=O,"InChI=1S/C3H7NO3/c1-2-3-7-4(5)6/h2-3H2,1H3",JNTOKFNBDFMTIV-UHFFFAOYSA-N,?,110.0,102974
102977,627-21-4,627-21-4,CC#CCC,2-PENTYNE,Pent-2-yne,Pent-2-yne,21962,DTXSID80211758,CC#CCC,"InChI=1S/C5H8/c1-3-5-4-2/h3H2,1-2H3",NKTDTMONXHODTI-UHFFFAOYSA-N,?,56.1,102977
102979,627-26-9|4786-20-3,4786-20-3,CC=CC#N,"2-BUTENENITRILE, E-, CROTONONITRILE",2-Butenenitrile,?,21963|23693,DTXSID0063604,CC=CC#N,"InChI=1S/C4H5N/c1-2-3-4-5/h2-3H,1H3/b3-2+",NKKMVIVFRUYPLQ-NSCUHMNNSA-N,?,120.25,102979
102980,627-27-0,627-27-0,C=CCCO,3-Buten-1-ol,3-Buten-1-ol,but-3-en-1-ol,21964,DTXSID2060836,C=CCCO,"InChI=1S/C4H8O/c1-2-3-4-5/h2,5H,1,3-4H2",ZSPTYLOMNJNZNG-UHFFFAOYSA-N,?,113.5,102980
102982,627-35-0,627-35-0,CCCNC,N-METHYLPROPYLAMINE,N-Methyl-N-propylamine,N-methylpropan-1-amine,21966,DTXSID50211760,CCCNC,"InChI=1S/C4H11N/c1-3-4-5-2/h5H,3-4H2,1-2H3",GVWISOJSERXQBM-UHFFFAOYSA-N,?,62.0,102982
102983,627-37-2,627-37-2,CNCC=C,N-METHYLALLYLAMINE,"2-Propen-1-amine, N-methyl-",N-methylprop-2-en-1-amine,21967,DTXSID8073219,CNCC=C,"InChI=1S/C4H9N/c1-3-4-5-2/h3,5H,1,4H2,2H3",IOXXVNYDGIXMIP-UHFFFAOYSA-N,?,65.0,102983
102984,627-39-4,627-39-4,CCC=NO,Propionaldehyde oxime,,,21968,DTXSID40878700,CCCN=O,"InChI=1S/C3H7NO/c1-2-3-4-5/h2-3H2,1H3",DAGJBILJINSVOD-UHFFFAOYSA-N,?,131.5,102984
102986,627-41-8,627-41-8,COCC#C,3-Methoxy-propyne,3-Methoxypropyne,3-methoxyprop-1-yne,21970,DTXSID70211762,COCC#C,"InChI=1S/C4H6O/c1-3-4-5-2/h1H,4H2,2H3",YACFFSVYSPMSGS-UHFFFAOYSA-N,?,63.0,102986
102987,627-42-9,627-42-9,COCCCl,"Ethane, 1-chloro-2-methoxy-","Ethane, 1-chloro-2-methoxy-",1-Chloro-2-methoxyethane,21971,DTXSID6060840,COCCCl,"InChI=1S/C3H7ClO/c1-5-3-2-4/h2-3H2,1H3",XTIGGAHUZJWQMD-UHFFFAOYSA-N,?,92.5,102987
102989,627-45-2,627-45-2,CCNC=O,N-FORMYLETHYLAMINE,"Formamide, N-ethyl-",N-Ethylformamide,21972,DTXSID6060842,CCNC=O,"InChI=1S/C3H7NO/c1-2-4-3-5/h3H,2H2,1H3,(H,4,5)",KERBAAIBDHEFDD-UHFFFAOYSA-N,?,198.0,102989
102992,627-58-7,627-58-7,CC(=C)CCC(C)=C,"2,5-DIMETHYL-1,5-HEXADIENE","1,5-Hexadiene, 2,5-dimethyl-","2,5-Dimethylhexa-1,5-diene",21974,DTXSID6060844,CC(=C)CCC(C)=C,"InChI=1S/C8H14/c1-7(2)5-6-8(3)4/h1,3,5-6H2,2,4H3",DSAYAFZWRDYBQY-UHFFFAOYSA-N,?,114.3,102992
102993,627-59-8,NOCAS_870730,CC(C)CCC(C)O,5-METHYL-2-HEXANOL,,,21975,DTXSID50870730,CC(C)CCC(C)O,"InChI=1S/C7H16O/c1-6(2)4-5-7(3)8/h6-8H,4-5H2,1-3H3",ZDVJGWXFXGJSIU-UHFFFAOYSA-N,?,151.0,102993
102994,627-63-4,627-63-4,O=C(Cl)/C=C/C(=O)Cl,FUMARYL CHLORIDE,Fumaryl chloride,(2E)-but-2-enedioyl dichloride,21976,DTXSID3033519,O=C(Cl)C=CC(=O)Cl,InChI=1S/C4H2Cl2O2/c5-3(7)1-2-4(6)8/h1-2H/b2-1+,ZLYYJUJDFKGVKB-OWOJBTEDSA-N,?,159.0,102994
102996,627-70-3,627-70-3,CC(C)=NN=C(C)C,"2-PROPANONE, (1-METHYLETHYLIDENE)HYDRAZONE","2-Propanone, (1-methylethylidene)hydrazone",N-(propan-2-ylideneamino)propan-2-imine,21978,DTXSID1060845,CC(C)=NN=C(C)C,InChI=1S/C6H12N2/c1-5(2)7-8-6(3)4/h1-4H3,PFLUPZGCTVGDLV-UHFFFAOYSA-N,?,133.0,102996
102997,627-73-6,627-73-6,COC(=O)CCC(=O)OCC,"BUTANEDIOIC ACID, ETHYL METHYL ESTER","Butanedioic acid, ethyl methyl ester",ethyl methyl butanedioate,21979,DTXSID7074327,COC(=O)CCC(=O)OCC,"InChI=1S/C7H12O4/c1-3-11-7(9)5-4-6(8)10-2/h3-5H2,1-2H3",HXXRQBBSGZDQNP-UHFFFAOYSA-N,?,208.2,102997
102998,627-97-4,627-97-4,CCCCC=C(C)C,2-METHYL-2-HEPTENE,2-Methylhept-2-ene,2-Methylhept-2-ene,21980,DTXSID40211774,CCCCC=C(C)C,"InChI=1S/C8H16/c1-4-5-6-7-8(2)3/h7H,4-6H2,1-3H3",WEPNJTDVIIKRIK-UHFFFAOYSA-N,?,122.6,102998
103000,628-02-4,628-02-4,CCCCCC(N)=O,Hexanamide,Hexanamide,hexanamide,21982,DTXSID6020696,CCCCCC(N)=O,"InChI=1S/C6H13NO/c1-2-3-4-5-6(7)8/h2-5H2,1H3,(H2,7,8)",ALBYIUDWACNRRB-UHFFFAOYSA-N,?,255.0,103000
103002,628-09-1,628-09-1,CC(=O)OCCCCl,"1-PROPANOL, 3-CHLORO-, ACETATE","1-Propanol, 3-chloro-, acetate",3-Chloropropyl acetate,21983,DTXSID80211879,CC(=O)OCCCCl,"InChI=1S/C5H9ClO2/c1-5(7)8-4-2-3-6/h2-4H2,1H3",KPOHQIPNNIMWRL-UHFFFAOYSA-N,?,164.0,103002
103003,628-11-5,628-11-5,O=C(Cl)OCCCCl,"Carbonochloridic acid, 3-chloropropyl ester","Carbonochloridic acid, 3-chloropropyl ester",3-chloropropyl chloroformate,21984,DTXSID1060847,O=C(Cl)OCCCCl,InChI=1S/C4H6Cl2O2/c5-2-1-3-8-4(6)7/h1-3H2,MTXMEFUEBCFWCY-UHFFFAOYSA-N,?,177.0,103003
103005,628-17-1,628-17-1,CCCCCI,1-IODOPENTANE,"Pentane, 1-iodo-",1-Iodopentane,21986,DTXSID1060849,CCCCCI,"InChI=1S/C5H11I/c1-2-3-4-5-6/h2-5H2,1H3",BLXSFCHWMBESKV-UHFFFAOYSA-N,?,155.0,103005
103006,628-20-6,628-20-6,N#CCCCCl,"BUTANENITRILE, 4-CHLORO-",4-Chlorobutyronitrile,4-Chlorobutanenitrile,21987,DTXSID0060850,N#CCCCCl,InChI=1S/C4H6ClN/c5-3-1-2-4-6/h1-3H2,ZFCFBWSVQWGOJJ-UHFFFAOYSA-N,?,192.0,103006
103007,628-28-4,628-28-4,CCCCOC,METHYL N-BUTYL ETHER,"Butane, 1-methoxy-",1-Methoxybutane,21988,DTXSID5074559,CCCCOC,"InChI=1S/C5H12O/c1-3-4-5-6-2/h3-5H2,1-2H3",CXBDYQVECUFKRK-UHFFFAOYSA-N,?,70.1,103007
103009,628-30-8,628-30-8,CCCN=C=S,"PROPANE, 1-ISOTHIOCYANATO-",Propyl isothiocyanate,1-isothiocyanatopropane,21990,DTXSID50211881,CCCN=C=S,"InChI=1S/C4H7NS/c1-2-3-5-4-6/h2-3H2,1H3",KKASGUHLXWAKEZ-UHFFFAOYSA-N,?,153.0,103009
103010,628-32-0,628-32-0,CCOCCC,ETHYL PROPYL ETHER,"Propane, 1-ethoxy-",1-Ethoxypropane,21991,DTXSID5075286,CCOCCC,"InChI=1S/C5H12O/c1-3-5-6-4-2/h3-5H2,1-2H3",NVJUHMXYKCUMQA-UHFFFAOYSA-N,?,63.2,103010
103011,628-34-2,628-34-2,CCOCCCl,2-CHLOROETHYLETHER,"Ethane, 1-chloro-2-ethoxy- (9CI)",1-CHLORO-2-ETHOXYETHANE,21992,DTXSID10211882,CCOCCCl,"InChI=1S/C4H9ClO/c1-2-6-4-3-5/h2-4H2,1H3",GPTVQTPMFOLLOA-UHFFFAOYSA-N,?,107.5,103011
103013,628-41-1,628-41-1,C1C=CCC=C1,"1,4-CYCLOHEXADIENE","1,4-Cyclohexadiene","cyclohexa-1,4-diene",21994,DTXSID0060854,C1C=CCC=C1,"InChI=1S/C6H8/c1-2-4-6-5-3-1/h1-2,5-6H,3-4H2",UVJHQYIOXKWHFD-UHFFFAOYSA-N,?,85.5,103013
103014,628-44-4,628-44-4,CCCCCCC(C)(C)O,"2-Octanol, 2-methyl-","2-Octanol, 2-methyl-",2-Methyloctan-2-ol,21995,DTXSID5060855,CCCCCCC(C)(C)O,"InChI=1S/C9H20O/c1-4-5-6-7-8-9(2,3)10/h10H,4-8H2,1-3H3",KBCNUEXDHWDIFX-UHFFFAOYSA-N,?,178.0,103014
103015,628-46-6,628-46-6,CC(C)CCCC(O)=O,5-Methylhexanoic acid,5-Methylhexanoic acid,5-methylhexanoic acid,21996,DTXSID8044252,CC(C)CCCC(O)=O,"InChI=1S/C7H14O2/c1-6(2)4-3-5-7(8)9/h6H,3-5H2,1-2H3,(H,8,9)",MHPUGCYGQWGLJL-UHFFFAOYSA-N,?,216.0,103015
103017,628-61-5,NOCAS_870732,CCCCCCC(C)Cl,2-CHLOROOCTANE,,,21998,DTXSID70870732,CCCCCCC(C)Cl,"InChI=1S/C8H17Cl/c1-3-4-5-6-7-8(2)9/h8H,3-7H2,1-2H3",HKDCIIMOALDWHF-UHFFFAOYSA-N,?,172.0,103017
103018,628-63-7,628-63-7,CCCCCOC(C)=O,N-AMYL ACETATE,Pentyl acetate,pentyl acetate,21999,DTXSID1027263,CCCCCOC(C)=O,"InChI=1S/C7H14O2/c1-3-4-5-6-9-7(2)8/h3-6H2,1-2H3",PGMYKACGEOXYJE-UHFFFAOYSA-N,?,149.2,103018
103019,628-66-0,628-66-0,CC(=O)OCCCOC(C)=O,"1,3-PROPANEDIOL, DIACETATE","1,3-Propanediol, diacetate",3-acetyloxypropyl acetate,22000,DTXSID30211889,CC(=O)OCCCOC(C)=O,"InChI=1S/C7H12O4/c1-6(8)10-4-3-5-11-7(2)9/h3-5H2,1-2H3",DSVGICPKBRQDDX-UHFFFAOYSA-N,?,209.5,103019
103021,628-68-2,628-68-2,CC(=O)OCCOCCOC(C)=O,"Ethanol, 2,2'-oxybis-, diacetate",,,22002,DTXSID90879242,CC(=O)OCCOCCOC(C)=O,"InChI=1S/C8H14O5/c1-7(9)12-5-3-11-4-6-13-8(2)10/h3-6H2,1-2H3",UBPGILLNMDGSDS-UHFFFAOYSA-N,?,200.0,103021
103022,628-71-7,628-71-7,CCCCCC#C,1-HEPTYNE,1-Heptyne,hept-1-yne,22003,DTXSID5060857,CCCCCC#C,"InChI=1S/C7H12/c1-3-5-7-6-4-2/h1H,4-7H2,2H3",YVXHZKKCZYLQOP-UHFFFAOYSA-N,?,99.7,103022
103023,628-73-9,628-73-9,CCCCCC#N,HEXANENITRILE,Hexanenitrile,Hexanenitrile,22004,DTXSID0060858,CCCCCC#N,"InChI=1S/C6H11N/c1-2-3-4-5-6-7/h2-5H2,1H3",AILKHAQXUAOOFU-UHFFFAOYSA-N,?,163.6,103023
103025,628-80-8,628-80-8,CCCCCOC,"PENTANE, 1-METHOXY-","Ether, methyl pentyl",1-Methoxypentane,22006,DTXSID40211890,CCCCCOC,"InChI=1S/C6H14O/c1-3-4-5-6-7-2/h3-6H2,1-2H3",DBUJFULDVAZULB-UHFFFAOYSA-N,?,99.0,103025
103026,628-81-9,628-81-9,CCCCOCC,BUTYL ETHYL ETHER,1-Ethoxybutane,butyl ethyl ether,22007,DTXSID7052311,CCCCOCC,"InChI=1S/C6H14O/c1-3-5-6-7-4-2/h3-6H2,1-2H3",PZHIWRCQKBBTOW-UHFFFAOYSA-N,?,92.3,103026
103027,628-83-1,628-83-1,CCCCSC#N,"THIOCYANIC ACID, BUTYL ESTER","Thiocyanic acid, butyl ester",1-thiocyanatobutane,22008,DTXSID4060860,CCCCSC#N,"InChI=1S/C5H9NS/c1-2-3-4-7-5-6/h2-4H2,1H3",HXNXAEYAXNPLHJ-UHFFFAOYSA-N,?,186.0,103027
103030,628-96-6,628-96-6,[O-][N+](=O)OCCO[N+]([O-])=O,ETHYLENE GLYCOL DINITRATE,Ethylene glycol dinitrate,"ethane-1,2-diyl dinitrate",22010,DTXSID6027264,[O-][N+](=O)OCCO[N+]([O-])=O,InChI=1S/C2H4N2O6/c5-3(6)9-1-2-10-4(7)8/h1-2H2,UQXKXGWGFRWILX-UHFFFAOYSA-N,?,198.5,103030
103031,628-99-9,70419-06-6,CCCCCCC[C@H](C)O,2-NONANOL,(S)-(+)-2-Nonanol,C9H20O,22011,DTXSID30454911,CCCCCCCC(C)O,"InChI=1S/C9H20O/c1-3-4-5-6-7-8-9(2)10/h9-10H,3-8H2,1-2H3",NGDNVOAEIVQRFH-UHFFFAOYSA-N,?,193.5,103031
103032,629-01-6,629-01-6,CCCCCCCC(N)=O,Octanamide,Octanamide,Octanamide,22012,DTXSID4060862,CCCCCCCC(N)=O,"InChI=1S/C8H17NO/c1-2-3-4-5-6-7-8(9)10/h2-7H2,1H3,(H2,9,10)",LTHCSWBWNVGEFE-UHFFFAOYSA-N,?,239.0,103032
103034,629-04-9,629-04-9,CCCCCCCBr,1-BROMOHEPTANE,1-Bromoheptane,1-bromoheptane,22014,DTXSID7022095,CCCCCCCBr,"InChI=1S/C7H15Br/c1-2-3-4-5-6-7-8/h2-7H2,1H3",LSXKDWGTSHCFPP-UHFFFAOYSA-N,?,179.0,103034
103035,629-05-0,629-05-0,CCCCCCC#C,1-OCTYNE,1-Octyne,,22015,DTXSID9060863,CCCCCCC#C,"InChI=1S/C8H14/c1-3-5-7-8-6-4-2/h1H,4-8H2,2H3",UMIPWJGWASORKV-UHFFFAOYSA-N,?,126.3,103035
103036,629-06-1,629-06-1,CCCCCCCCl,1-CHLOROHEPTANE,"Heptane, 1-chloro-",1-CHLOROHEPTANE,22016,DTXSID4060864,CCCCCCCCl,"InChI=1S/C7H15Cl/c1-2-3-4-5-6-7-8/h2-7H2,1H3",DZMDPHNGKBEVRE-UHFFFAOYSA-N,?,159.0,103036
103038,629-11-8,629-11-8,OCCCCCCO,"1,6-HEXANEDIOL","1,6-Hexanediol","hexane-1,6-diol",22018,DTXSID1027265,OCCCCCCO,"InChI=1S/C6H14O2/c7-5-3-1-2-4-6-8/h7-8H,1-6H2",XXMIOPMDWAUFGU-UHFFFAOYSA-N,?,250.0,103038
103039,629-14-1,629-14-1,CCOCCOCC,"1,2-DIETHOXYETHANE",Ethylene glycol diethyl ether,"1,2-diethoxyethane",22019,DTXSID5025285,CCOCCOCC,"InChI=1S/C6H14O2/c1-3-7-5-6-8-4-2/h3-6H2,1-2H3",LZDKZFUFMNSQCJ-UHFFFAOYSA-N,?,119.4,103039
103040,629-15-2,629-15-2,O=COCCOC=O,"1,2-Ethanediol, diformate","1,2-Ethanediol, 1,2-diformate",2-formyloxyethyl formate,22020,DTXSID4060866,O=COCCOC=O,"InChI=1S/C4H6O4/c5-3-7-1-2-8-4-6/h3-4H,1-2H2",IKCQWKJZLSDDSS-UHFFFAOYSA-N,?,174.0,103040
103042,629-20-9,629-20-9,C1C=CC=CC=CC=1,"1,3,5,7-CYCLOOCTATETRAENE","1,3,5,7-Cyclooctatetraene",,22022,DTXSID9060867,C1C=CC=CC=CC=1,"InChI=1S/C8H8/c1-2-4-6-8-7-5-3-1/h1-8H/b2-1-,3-1-,4-2-,5-3-,6-4-,7-5-,8-6-,8-7-",KDUIUFJBNGTBMD-BONZMOEMSA-N,?,140.5,103042
103043,629-27-6,629-27-6,CCCCCCCCI,1-IODOOCTANE,"Octane, 1-iodo-",1-IODOOCTANE,22023,DTXSID4060868,CCCCCCCCI,"InChI=1S/C8H17I/c1-2-3-4-5-6-7-8-9/h2-8H2,1H3",UWLHSHAHTBJTBA-UHFFFAOYSA-N,?,225.5,103043
103044,629-30-1,629-30-1,OCCCCCCCO,"1,7-Heptanediol","1,7-Heptanediol","Heptane-1,7-diol",22024,DTXSID90212074,OCCCCCCCO,"InChI=1S/C7H16O2/c8-6-4-2-1-3-5-7-9/h8-9H,1-7H2",SXCBDZAEHILGLM-UHFFFAOYSA-N,?,262.0,103044
103046,629-33-4,629-33-4,CCCCCCOC=O,"Formic acid, hexyl ester","Formic acid, hexyl ester",Hexyl formate,22026,DTXSID8060870,CCCCCCOC=O,"InChI=1S/C7H14O2/c1-2-3-4-5-6-9-7-8/h7H,2-6H2,1H3",OUGPMNMLWKSBRI-UHFFFAOYSA-N,?,155.5,103046
103047,629-36-7,629-36-7,ClCCCOCCCCl,"Propane, 1,1'-oxybis 3-chloro-","1,1'-Oxybis[3-chloropropane]",1-chloro-3-(3-chloropropoxy)propane,22027,DTXSID8060872,ClCCCOCCCCl,InChI=1S/C6H12Cl2O/c7-3-1-5-9-6-2-4-8/h1-6H2,SMANNJALMIGASX-UHFFFAOYSA-N,?,216.0,103047
103048,629-46-9,629-46-9,CCCCCCCCON=O,"Nitrous acid, octyl ester","Nitrous acid, octyl ester",OCTYL NITRITE,22028,DTXSID3060875,CCCCCCCCON=O,"InChI=1S/C8H17NO2/c1-2-3-4-5-6-7-8-11-9-10/h2-8H2,1H3",QPHJACNABSHDHC-UHFFFAOYSA-N,?,174.5,103048
103050,629-59-4,629-59-4,CCCCCCCCCCCCCC,TETRADECANE,Tetradecane,tetradecane,22030,DTXSID1027267,CCCCCCCCCCCCCC,"InChI=1S/C14H30/c1-3-5-7-9-11-13-14-12-10-8-6-4-2/h3-14H2,1-2H3",BGHCVCJVXZWKCC-UHFFFAOYSA-N,?,253.5,103050
103051,629-60-7,629-60-7,CCCCCCCCCCCCC#N,Tridecanenitrile,Tridecanenitrile,Tridecanenitrile,22031,DTXSID8060876,CCCCCCCCCCCCC#N,"InChI=1S/C13H25N/c1-2-3-4-5-6-7-8-9-10-11-12-13-14/h2-12H2,1H3",WKJHMKQSIBMURP-UHFFFAOYSA-N,?,293.0,103051
103052,629-62-9,629-62-9,CCCCCCCCCCCCCCC,N-PENTADECANE,Pentadecane,pentadecane,22032,DTXSID6027268,CCCCCCCCCCCCCCC,"InChI=1S/C15H32/c1-3-5-7-9-11-13-15-14-12-10-8-6-4-2/h3-15H2,1-2H3",YCOZIPAWZNQLMR-UHFFFAOYSA-N,?,270.6,103052
103054,629-65-2,629-65-2,CCCCCCCSCCCCCCC,"Heptane, 1,1'-thiobis-","Heptane, 1,1'-thiobis-",1-heptylsulfanylheptane,22034,DTXSID3060879,CCCCCCCSCCCCCCC,"InChI=1S/C14H30S/c1-3-5-7-9-11-13-15-14-12-10-8-6-4-2/h3-14H2,1-2H3",LEMIDOZYVQXGLI-UHFFFAOYSA-N,?,298.0,103054
103055,629-72-1,629-72-1,CCCCCCCCCCCCCCCBr,1-BROMOPENTADECANE,"Pentadecane,1-bromo-",1-bromopentadecane,22035,DTXSID8049339,CCCCCCCCCCCCCCCBr,"InChI=1S/C15H31Br/c1-2-3-4-5-6-7-8-9-10-11-12-13-14-15-16/h2-15H2,1H3",JKOTZBXSNOGCIF-UHFFFAOYSA-N,?,322.0,103055