ChemID,source_casrn,CAS,SMILES,NAME,preferred_name,iupac,MPID,dsstox_substance_id,Canonical_QSARr,InChI_Code_QSARr,InChI Key_QSARr,Salt_Solvent,Salt_Solvent_ID,MP,ID
106565,2029-94-9,2029-94-9,CCOc1cc(C=O)ccc1OCC,"Benzaldehyde, 3,4-diethoxy-","Benzaldehyde, 3,4-diethoxy-","3,4-Diethoxybenzaldehyde",33377,DTXSID3062108,CCOc1cc(C=O)ccc1OCC,"InChI=1S/C11H14O3/c1-3-13-10-6-5-9(8-12)7-11(10)14-4-2/h5-8H,3-4H2,1-2H3",SSTRYEXQYQGGAS-UHFFFAOYSA-N,?,,22.0,106565
106569,2032-65-7,2032-65-7,CNC(=O)Oc1cc(C)c(SC)c(C)c1,METHIOCARB,Methiocarb,"3,5-dimethyl-4-(methylsulfanyl)phenyl methylcarbamate",33381,DTXSID3032626,CNC(=O)Oc1cc(C)c(SC)c(C)c1,"InChI=1S/C11H15NO2S/c1-7-5-9(14-11(13)12-3)6-8(2)10(7)15-4/h5-6H,1-4H3,(H,12,13)",YFBPRJGDJKVWAH-UHFFFAOYSA-N,?,,120.0,106569
106573,2038-03-1,2038-03-1,NCCN1CCOCC1,4-Morpholineethanamine,2-Morpholinoethylamine,2-(morpholin-4-yl)ethanamine,33385,DTXSID4044408,NCCN1CCOCC1,InChI=1S/C6H14N2O/c7-1-2-8-3-5-9-6-4-8/h1-7H2,RWIVICVCHVMHMU-UHFFFAOYSA-N,?,,25.6,106573
106577,2039-89-6,2039-89-6,Cc1cc(C=C)c(C)cc1,"Styrene, 2,5-dimethyl-","Benzene, 2-ethenyl-1,4-dimethyl-","2-ethenyl-1,4-dimethylbenzene",33389,DTXSID6074702,Cc1cc(C=C)c(C)cc1,"InChI=1S/C10H12/c1-4-10-7-8(2)5-6-9(10)3/h4-7H,1H2,2-3H3",DBWWINQJTZYDFK-UHFFFAOYSA-N,?,,-35.0,106577
106582,2040-96-2,2040-96-2,CCCC1CCCC1,PROPYLCYCLOPENTANE,"Cyclopentane, propyl-",Propylcyclopentane,33393,DTXSID60174352,CCCC1CCCC1,"InChI=1S/C8H16/c1-2-5-8-6-3-4-7-8/h8H,2-7H2,1H3",KDIAMAVWIJYWHN-UHFFFAOYSA-N,?,,-117.3,106582
106586,2049-73-2,2049-73-2,CCOc1cc(ccc1)OCC,"1,3-Diethoxybenzene","1,3-Diethoxybenzene","1,3-Diethoxybenzene",33397,DTXSID10174463,CCOc1cc(ccc1)OCC,"InChI=1S/C10H14O2/c1-3-11-9-6-5-7-10(8-9)12-4-2/h5-8H,3-4H2,1-2H3",MKGFYMKFBCWNCP-UHFFFAOYSA-N,?,,12.4,106586
106590,2050-23-9,2050-23-9,CCOC(=O)CCCCCCC(=O)OCC,DIETHYL SUBERATE,Diethyl suberate,Diethyl octanedioate,33401,DTXSID90174486,CCOC(=O)CCCCCCC(=O)OCC,"InChI=1S/C12H22O4/c1-3-15-11(13)9-7-5-6-8-10-12(14)16-4-2/h3-10H2,1-2H3",PEUGOJXLBSIJQS-UHFFFAOYSA-N,?,,5.9,106590
106594,2050-47-7,2050-47-7,Brc1ccc(cc1)Oc1ccc(Br)cc1,"Benzene, 1,1'-oxybis 4-bromo-","4,4'-Dibromodiphenyl ether",bis(4-bromophenyl) ether,33405,DTXSID9024015,Brc1ccc(cc1)Oc1ccc(Br)cc1,InChI=1S/C12H8Br2O/c13-9-1-5-11(6-2-9)15-12-7-3-10(14)4-8-12/h1-8H,YAWIAFUBXXPJMQ-UHFFFAOYSA-N,?,,60.5,106594
106598,2050-69-3,2050-69-3,Clc1ccc2ccccc2c1Cl,"1,2-DICHLORONAPHTHALENE","Naphthalene, 1,2-dichloro-","1,2-DICHLORONAPHTHALENE",33409,DTXSID5062136,Clc1ccc2ccccc2c1Cl,InChI=1S/C10H6Cl2/c11-9-6-5-7-3-1-2-4-8(7)10(9)12/h1-6H,MOXLHAPKZWTHEX-UHFFFAOYSA-N,?,,36.0,106598
106602,2050-77-3,2050-77-3,CCCCCCCCCCI,1-IODODECANE,"Decane, 1-iodo-",1-IODODECANE,33413,DTXSID9062142,CCCCCCCCCCI,"InChI=1S/C10H21I/c1-2-3-4-5-6-7-8-9-10-11/h2-10H2,1H3",SKIDNYUZJPMKFC-UHFFFAOYSA-N,?,,-16.3,106602
106606,2051-24-3,2051-24-3,Clc1c(-c2c(Cl)c(Cl)c(Cl)c(Cl)c2Cl)c(Cl)c(Cl)c(Cl)c1Cl,DECACHLOROBIPHENYL,Decachlorobiphenyl,decachlorobiphenyl,33416,DTXSID4047541,Clc1c(-c2c(Cl)c(Cl)c(Cl)c(Cl)c2Cl)c(Cl)c(Cl)c(Cl)c1Cl,InChI=1S/C12Cl10/c13-3-1(4(14)8(18)11(21)7(3)17)2-5(15)9(19)12(22)10(20)6(2)16,ONXPZLFXDMAPRO-UHFFFAOYSA-N,?,,305.8,106606
106610,2051-60-7,2051-60-7,Clc1ccccc1-c1ccccc1,2-CHLOROBIPHENYL,2-Chlorobiphenyl,2-chlorobiphenyl,33420,DTXSID6040298,Clc1ccccc1-c1ccccc1,InChI=1S/C12H9Cl/c13-12-9-5-4-8-11(12)10-6-2-1-3-7-10/h1-9H,LAXBNTIAOJWAOP-UHFFFAOYSA-N,?,,34.0,106610
106614,2051-85-6,2051-85-6,Oc1cc(O)c(cc1)N=Nc1ccccc1,"2,4-Dihydroxyazobenzene","1,3-Benzenediol, 4-(phenylazo)-",,33424,DTXSID9062146,Oc1cc(O)c(cc1)N=Nc1ccccc1,"InChI=1S/C12H10N2O2/c15-10-6-7-11(12(16)8-10)14-13-9-4-2-1-3-5-9/h1-8,15-16H/b14-13+",BPTKLSBRRJFNHJ-BUHFOSPRSA-N,?,,170.0,106614
106618,2052-01-9,2052-01-9,CC(C)(Br)C(O)=O,"Propanoic acid, 2-bromo-2-methyl-","Propanoic acid, 2-bromo-2-methyl-",2-Bromo-2-methylpropanoic acid,33428,DTXSID8062151,CC(C)(Br)C(O)=O,"InChI=1S/C4H7BrO2/c1-4(2,5)3(6)7/h1-2H3,(H,6,7)",XXSPGBOGLXKMDU-UHFFFAOYSA-N,?,,48.5,106618
106622,2055-40-5,2055-40-5,CC(C)c1ccc(C=C)cc1,1-Isopropyl-4-vinylbenzene,p-Isopropylstyrene,1-ethenyl-4-propan-2-ylbenzene,33432,DTXSID40174552,CC(C)c1ccc(C=C)cc1,"InChI=1S/C11H14/c1-4-10-5-7-11(8-6-10)9(2)3/h4-9H,1H2,2-3H3",QQHQTCGEZWTSEJ-UHFFFAOYSA-N,?,,-44.7,106622
106626,2062-25-1,NOCAS_870931,OC(=O)/C=C/c1ccccc1C(F)(F)F,2-(Trifluoromethyl)cinnamic acid,,,33436,DTXSID90870931,OC(=O)C=Cc1ccccc1C(F)(F)F,"InChI=1S/C10H7F3O2/c11-10(12,13)8-4-2-1-3-7(8)5-6-9(14)15/h1-6H,(H,14,15)/b6-5+",AMVYAIXPAGBXOM-AATRIKPKSA-N,?,,206.0,106626
106631,2065-23-8,2065-23-8,COC(=O)COc1ccccc1,METHYL PHENOXYACETATE,"Acetic acid, phenoxy-, methyl ester",methyl 2-(phenoxy)acetate,33440,DTXSID2062161,COC(=O)COc1ccccc1,"InChI=1S/C9H10O3/c1-11-9(10)7-12-8-5-3-2-4-6-8/h2-6H,7H2,1H3",BZCKRPHEZOHHBK-UHFFFAOYSA-N,?,,245.0,106631
106635,2077-13-6,2077-13-6,CC(C)c1ccccc1Cl,"Benzene, 1-chloro-2-(1-methylethyl)-",o-Chlorocumene,1-chloro-2-propan-2-ylbenzene,33444,DTXSID2062165,CC(C)c1ccccc1Cl,"InChI=1S/C9H11Cl/c1-7(2)8-5-3-4-6-9(8)10/h3-7H,1-2H3",RNEMUWDQJSRDMQ-UHFFFAOYSA-N,?,,-74.4,106635
106639,2082-81-7,2082-81-7,CC(=C)C(=O)OCCCCOC(=O)C(C)=C,"1,4-BUTANEDIYL BIS(2-METHYL-2-PROPENOATE)","Butane-1,4-diyl bis(2-methylprop-2-enoate)","butane-1,4-diyl bis(2-methylprop-2-enoate)",33448,DTXSID4044870,CC(=C)C(=O)OCCCCOC(=O)C(C)=C,"InChI=1S/C12H18O4/c1-9(2)11(13)15-7-5-6-8-16-12(14)10(3)4/h1,3,5-8H2,2,4H3",XOJWAAUYNWGQAU-UHFFFAOYSA-N,?,,226.28,106639
106644,2090-54-2,2090-54-2,[Cl-].CC(CN1c2ccccc2Sc2ccccc12)[N+](C)(C)CCO,N-Hydroxyethylpromethazine Chloride,,,33452,DTXSID70875166,CC(CN1c2ccccc2Sc2ccccc12)[N+](C)(C)CCO,"InChI=1S/C19H25N2OS/c1-15(21(2,3)12-13-22)14-20-16-8-4-6-10-18(16)23-19-11-7-5-9-17(19)20/h4-11,15,22H,12-14H2,1-3H3/q+1",PDSVTRQOBUIQBQ-UHFFFAOYSA-N,[Cl-],18179.0,233.0,106644
106649,2104-64-5,2104-64-5,CCOP(=S)(Oc1ccc(cc1)[N+]([O-])=O)c1ccccc1,EPN,EPN,O-ethyl O-(4-nitrophenyl) phenylphosphonothioate,33457,DTXSID7022174,CCOP(=S)(Oc1ccc(cc1)[N+]([O-])=O)c1ccccc1,"InChI=1S/C14H14NO4PS/c1-2-18-20(21,14-6-4-3-5-7-14)19-13-10-8-12(9-11-13)15(16)17/h3-11H,2H2,1H3",AIGRXSNSLVJMEA-UHFFFAOYSA-N,?,,36.0,106649
106653,2113-47-5,2113-47-5,CC(=O)Nc1ccccc1-c1ccccc1,2-PHENYLACETANILIDE,2-Acetamidobiphenyl,N-(biphenyl-2-yl)acetamide,33461,DTXSID6036837,CC(=O)Nc1ccccc1-c1ccccc1,"InChI=1S/C14H13NO/c1-11(16)15-14-10-6-5-9-13(14)12-7-3-2-4-8-12/h2-10H,1H3,(H,15,16)",IXCZSZXIGHWLEJ-UHFFFAOYSA-N,?,,121.0,106653
106657,2116-62-3,2116-62-3,C(Cc1cccc[n]1)c1ccccc1,"Pyridine, 2-(2-phenylethyl)-","Pyridine, 2-(2-phenylethyl)-",2-(2-Phenylethyl)pyridine,33465,DTXSID0062187,C(Cc1cccc[n]1)c1ccccc1,"InChI=1S/C13H13N/c1-2-6-12(7-3-1)9-10-13-8-4-5-11-14-13/h1-8,11H,9-10H2",NIJWAAUHTPDGOM-UHFFFAOYSA-N,?,,-3.0,106657
106661,2128-93-0,2128-93-0,O=C(c1ccccc1)c1ccc(cc1)-c1ccccc1,"Methanone, (1,1'-biphenyl)-4-ylphenyl-","Methanone, [1,1'-biphenyl]-4-ylphenyl-",phenyl-(4-phenylphenyl)methanone,33469,DTXSID4062193,O=C(c1ccccc1)c1ccc(cc1)-c1ccccc1,InChI=1S/C19H14O/c20-19(17-9-5-2-6-10-17)18-13-11-16(12-14-18)15-7-3-1-4-8-15/h1-14H,LYXOWKPVTCPORE-UHFFFAOYSA-N,?,,100.0,106661
106665,2131-55-7,2131-55-7,S=C=Nc1ccc(Cl)cc1,"BENZENE, 1-CHLORO-4-ISOTHIOCYANATO-",1-Chloro-4-isothiocyanatobenzene,1-Chloro-4-isothiocyanatobenzene,33473,DTXSID70175577,S=C=Nc1ccc(Cl)cc1,InChI=1S/C7H4ClNS/c8-6-1-3-7(4-2-6)9-5-10/h1-4H,MZZVFXMTZTVUFO-UHFFFAOYSA-N,?,,46.0,106665
106669,2136-89-2,NOCAS_871863,Clc1ccccc1C(Cl)(Cl)Cl,2-CHLOROBENZOTRICHLORIDE,,,33477,DTXSID50871863,Clc1ccccc1C(Cl)(Cl)Cl,"InChI=1S/C7H4Cl4/c8-6-4-2-1-3-5(6)7(9,10)11/h1-4H",MFHPYLFZSCSNST-UHFFFAOYSA-N,?,,29.4,106669
106673,2138-48-9,2138-48-9,CC(C)c1cccc(O)c1O,"1,2-Benzenediol, 3-(1-methylethyl)- (9CI)",3-Isopropylcatechol,"3-propan-2-ylbenzene-1,2-diol",33481,DTXSID80175644,CC(C)c1cccc(O)c1O,"InChI=1S/C9H12O2/c1-6(2)7-4-3-5-8(10)9(7)11/h3-6,10-11H,1-2H3",XLZHGKDRKSKCAU-UHFFFAOYSA-N,?,,47.0,106673
106677,2142-73-6,2142-73-6,Cc1cc(C(C)=O)c(C)cc1,"Ethanone, 1-(2,5-dimethylphenyl)-","Ethanone, 1-(2,5-dimethylphenyl)-","1-(2,5-dimethylphenyl)ethanone",33485,DTXSID6062202,Cc1cc(C(C)=O)c(C)cc1,"InChI=1S/C10H12O/c1-7-4-5-8(2)10(6-7)9(3)11/h4-6H,1-3H3",AWKBVLVKQQRRFQ-UHFFFAOYSA-N,?,,-18.1,106677
106681,2148-56-3,2148-56-3,Nc1cccc(Cl)c1C(O)=O,2-Amino-6-chlorobenzoic Acid,2-Amino-6-chlorobenzoic acid,2-Amino-6-chlorobenzoic acid,33489,DTXSID40175761,Nc1cccc(Cl)c1C(O)=O,"InChI=1S/C7H6ClNO2/c8-4-2-1-3-5(9)6(4)7(10)11/h1-3H,9H2,(H,10,11)",SZCPTRGBOVXVCA-UHFFFAOYSA-N,?,,159.0,106681
106685,2152-44-5,2152-44-5,C[C@H]1C[C@H]2[C@@H]3CCC4=CC(=O)C=C[C@]4(C)[C@@]3(F)[C@@H](O)C[C@]2(C)[C@@]1(OC(=O)CCCC)C(=O)CO,BETAMETHASONE-17-VALERATE,Betamethasone valerate,"(11beta,16beta)-9-fluoro-11,21-dihydroxy-16-methyl-3,20-dioxopregna-1,4-dien-17-yl pentanoate",33493,DTXSID7022673,CC1CC2C3CCC4=CC(=O)C=CC4(C)C3(F)C(O)CC2(C)C1(OC(=O)CCCC)C(=O)CO,"InChI=1S/C27H37FO6/c1-5-6-7-23(33)34-27(22(32)15-29)16(2)12-20-19-9-8-17-13-18(30)10-11-24(17,3)26(19,28)21(31)14-25(20,27)4/h10-11,13,16,19-21,29,31H,5-9,12,14-15H2,1-4H3",SNHRLVCMMWUAJD-UHFFFAOYSA-N,?,,183.5,106685
106690,2160-93-2,2160-93-2,CC(C)(C)N(CCO)CCO,tert-Butyldiethanolamine,"2,2'-(tert-Butylimino)diethanol","2,2'-(tert-butylimino)diethanol",33497,DTXSID8029230,CC(C)(C)N(CCO)CCO,"InChI=1S/C8H19NO2/c1-8(2,3)9(4-6-10)5-7-11/h10-11H,4-7H2,1-3H3",XHJGXOOOMKCJPP-UHFFFAOYSA-N,?,,42.0,106690
106694,2163-69-1,2163-69-1,CN(C)C(=O)NC1CCCCCCC1,CYCLURON,Cycluron,"3-cyclooctyl-1,1-dimethylurea",33501,DTXSID8041824,CN(C)C(=O)NC1CCCCCCC1,"InChI=1S/C11H22N2O/c1-13(2)11(14)12-10-8-6-4-3-5-7-9-10/h10H,3-9H2,1-2H3,(H,12,14)",DQZCVNGCTZLGAQ-UHFFFAOYSA-N,?,,138.0,106694
106698,2168-93-6,2168-93-6,CCCCS(=O)CCCC,"BUTANE, 1,1'-SULFINYLBIS-","Butane, 1,1'-sulfinylbis-",1-butylsulfinylbutane,33505,DTXSID80176070,CCCCS(=O)CCCC,"InChI=1S/C8H18OS/c1-3-5-7-10(9)8-6-4-2/h3-8H2,1-2H3",LOWMYOWHQMKBTM-UHFFFAOYSA-N,?,,32.6,106698
106702,2170-45-8,2170-45-8,Brc1c2Oc3c(Oc2c(Br)c(Br)c1Br)c(Br)c(Br)c(Br)c3Br,OCTABROMODIBENZO-P-DIOXIN,Octabromodibenzo-p-dioxin,"1,2,3,4,6,7,8,9-octabromooxanthrene",33509,DTXSID70176089,Brc1c2Oc3c(Oc2c(Br)c(Br)c1Br)c(Br)c(Br)c(Br)c3Br,InChI=1S/C12Br8O2/c13-1-2(14)6(18)10-9(5(1)17)21-11-7(19)3(15)4(16)8(20)12(11)22-10,XAHTWKGGNHXJRP-UHFFFAOYSA-N,?,,376.0,106702
106706,2176-62-7,2176-62-7,Clc1c(Cl)c(Cl)[n]c(Cl)c1Cl,"2,3,4,5,6-PENTACHLORPYRIDINE",Pentachloropyridine,pentachloropyridine,33513,DTXSID2022179,Clc1c(Cl)c(Cl)[n]c(Cl)c1Cl,InChI=1S/C5Cl5N/c6-1-2(7)4(9)11-5(10)3(1)8,DNDPLEAVNVOOQZ-UHFFFAOYSA-N,?,,125.5,106706
106712,2197-57-1,2197-57-1,CC1C(=O)c2ccccc2C(=O)C=1C,"2,3-Dimethyl-1,4-naphthoquinone","2,3-Dimethyl-1,4-naphthoquinone","2,3-dimethylnaphthalene-1,4-dione",33517,DTXSID50176380,CC1C(=O)c2ccccc2C(=O)C=1C,"InChI=1S/C12H10O2/c1-7-8(2)12(14)10-6-4-3-5-9(10)11(7)13/h3-6H,1-2H3",LGFDNUSAWCHVJN-UHFFFAOYSA-N,?,,127.0,106712
106716,2203-80-7,2203-80-7,CC(C)CCC#C,"1-HEXYNE, 5-METHYL-","1-Hexyne, 5-methyl-",5-methylhex-1-yne,33521,DTXSID80176499,CC(C)CCC#C,"InChI=1S/C7H12/c1-4-5-6-7(2)3/h1,7H,5-6H2,2-3H3",HKNANEMUCJGPMS-UHFFFAOYSA-N,?,,-125.0,106716
106722,2209-86-1,2209-86-1,OCC(CCl)(CCl)CO,Pentaerythritol Dichlorohydrin,Loprodiol,"2,2-bis(chloromethyl)propane-1,3-diol",33526,DTXSID40176591,OCC(CCl)(CCl)CO,"InChI=1S/C5H10Cl2O2/c6-1-5(2-7,3-8)4-9/h8-9H,1-4H2",YFESJHPTNWYOCO-UHFFFAOYSA-N,?,,83.0,106722
106728,2213-63-0,2213-63-0,Clc1[n]c2ccccc2[n]c1Cl,"Quinoxaline, 2,3-dichloro-","2,3-Dichloroquinoxaline","2,3-dichloroquinoxaline",33530,DTXSID1025013,Clc1[n]c2ccccc2[n]c1Cl,InChI=1S/C8H4Cl2N2/c9-7-8(10)12-6-4-2-1-3-5(6)11-7/h1-4H,SPSSDDOTEZKOOV-UHFFFAOYSA-N,?,,153.0,106728
106734,2216-68-4,2216-68-4,CNc1cccc2ccccc21,"1-NAPHTHALENAMINE, N-METHYL-","1-Naphthalenamine, N-methyl-",N-methylnaphthalen-1-amine,33535,DTXSID0062262,CNc1cccc2ccccc21,"InChI=1S/C11H11N/c1-12-11-8-4-6-9-5-2-3-7-10(9)11/h2-8,12H,1H3",AKEYUWUEAXIBTF-UHFFFAOYSA-N,?,,174.0,106734
106739,2217-41-6,2217-41-6,Nc1cccc2CCCCc21,"1-NAPHTHALENAMINE, 5,6,7,8-TETRAHYDRO-","1-Naphthylamine, 5,6,7,8-tetrahydro-",,33540,DTXSID70176701,Nc1cccc2CCCCc21,"InChI=1S/C10H13N/c11-10-7-3-5-8-4-1-2-6-9(8)10/h3,5,7H,1-2,4,6,11H2",SODWJACROGQSMM-UHFFFAOYSA-N,?,,38.0,106739
106744,2233-00-3,2233-00-3,C=CC(Cl)(Cl)Cl,"1-Propene, 3,3,3-trichloro-","1-Propene, 3,3,3-trichloro-","3,3,3-trichloroprop-1-ene",33544,DTXSID3062281,C=CC(Cl)(Cl)Cl,"InChI=1S/C3H3Cl3/c1-2-3(4,5)6/h2H,1H2",VKEIPALYOJMDAC-UHFFFAOYSA-N,?,,-30.0,106744
106748,2234-26-6,NOCAS_870949,N#CC1CC2CC1CC2,Norbornane-2-carbonitrile,,,33548,DTXSID20870949,N#CC1CC2CC1CC2,"InChI=1S/C8H11N/c9-5-8-4-6-1-2-7(8)3-6/h6-8H,1-4H2",GAHKEUUHTHVKEA-UHFFFAOYSA-N,?,,44.0,106748
106752,2239-78-3,2239-78-3,CCCCCCCCCCCCCCCC(=O)OCCC,"HEXADECANOIC ACID, PROPYLESTER","Hexadecanoic acid, propyl ester",Propyl hexadecanoate,33552,DTXSID5073955,CCCCCCCCCCCCCCCC(=O)OCCC,"InChI=1S/C19H38O2/c1-3-5-6-7-8-9-10-11-12-13-14-15-16-17-19(20)21-18-4-2/h3-18H2,1-2H3",BEKZXQKGTDVSKX-UHFFFAOYSA-N,?,,20.4,106752
106756,2243-35-8,NOCAS_862889,CC(=O)OCC(=O)c1ccccc1,"Ethanone, 2-(acetyloxy)-1-phenyl-",,,33556,DTXSID20862889,CC(=O)OCC(=O)c1ccccc1,"InChI=1S/C10H10O3/c1-8(11)13-7-10(12)9-5-3-2-4-6-9/h2-6H,7H2,1H3",BGAXCPSNMHVHJC-UHFFFAOYSA-N,?,,49.0,106756
106760,2243-55-2,2243-55-2,NNc1cccc2ccccc21,1-Naphthylhydrazine,"Hydrazine, 1-naphthalenyl-",naphthalen-1-ylhydrazine,33560,DTXSID60176957,NNc1cccc2ccccc21,"InChI=1S/C10H10N2/c11-12-10-7-3-5-8-4-1-2-6-9(8)10/h1-7,12H,11H2",XBCIOBSQHJYVBQ-UHFFFAOYSA-N,?,,117.0,106760
106764,2243-81-4,2243-81-4,NC(=O)c1cccc2ccccc21,1-NAPHTHALENECARBOXAMIDE,1-Naphthalenecarboxamide,naphthalene-1-carboxamide,33564,DTXSID90176960,NC(=O)c1cccc2ccccc21,"InChI=1S/C11H9NO/c12-11(13)10-7-3-5-8-4-1-2-6-9(8)10/h1-7H,(H2,12,13)",RMHJJUOPOWPRBP-UHFFFAOYSA-N,?,,205.8,106764
106768,2246-44-8,2246-44-8,Cc1ccc2ccccc2c1N,"1-Naphthylamine, 2-methyl-",2-Methyl-1-naphthylamine,2-methylnaphthalen-1-amine,33568,DTXSID40176995,Cc1ccc2ccccc2c1N,"InChI=1S/C11H11N/c1-8-6-7-9-4-2-3-5-10(9)11(8)12/h2-7H,12H2,1H3",JMBLSGAXSMOKPN-UHFFFAOYSA-N,?,,32.0,106768
106773,2259-96-3,2259-96-3,NS(=O)(=O)c1cc2c(cc1Cl)NC(NS2(=O)=O)C1CC2CC1C=C2,CYCLOTHIAZIDE,Cyclothiazide,"3-(bicyclo[2.2.1]hept-5-en-2-yl)-6-chloro-3,4-dihydro-2H-1,2,4-benzothiadiazine-7-sulfonamide 1,1-dioxide",33572,DTXSID3022871,NS(=O)(=O)c1cc2c(cc1Cl)NC(NS2(=O)=O)C1CC2CC1C=C2,"InChI=1S/C14H16ClN3O4S2/c15-10-5-11-13(6-12(10)23(16,19)20)24(21,22)18-14(17-11)9-4-7-1-2-8(9)3-7/h1-2,5-9,14,17-18H,3-4H2,(H2,16,19,20)",BOCUKUHCLICSIY-UHFFFAOYSA-N,?,,234.0,106773
106778,2272-45-9,NOCAS_870953,Cc1ccc(cc1)N=Cc1ccccc1,Benzylidene-p-tolyl-amine,,,33576,DTXSID10870953,Cc1ccc(cc1)N=Cc1ccccc1,"InChI=1S/C14H13N/c1-12-7-9-14(10-8-12)15-11-13-5-3-2-4-6-13/h2-11H,1H3/b15-11+",MSFVFFZPHJPOHP-RVDMUPIBSA-N,?,,35.0,106778
106782,2277-92-1,2277-92-1,Oc1c(C(=O)Nc2cc(Cl)cc(Cl)c2O)c(Cl)c(Cl)cc1Cl,Oxyclozanide,Oxyclozanide,"2,3,5-Trichloro-N-(3,5-dichloro-2-hydroxyphenyl)-6-hydroxybenzamide",33580,DTXSID50177312,Oc1c(C(=O)Nc2cc(Cl)cc(Cl)c2O)c(Cl)c(Cl)cc1Cl,"InChI=1S/C13H6Cl5NO3/c14-4-1-6(16)11(20)8(2-4)19-13(22)9-10(18)5(15)3-7(17)12(9)21/h1-3,20-21H,(H,19,22)",JYWIYHUXVMAGLG-UHFFFAOYSA-N,?,,210.0,106782
106787,2295-31-0,2295-31-0,O=C1NC(=O)CS1,"2,4-Thiazolidinedione",Thiazolidinedione,C3H3NO2S,33584,DTXSID5040623,O=C1NC(=O)CS1,"InChI=1S/C3H3NO2S/c5-2-1-7-3(6)4-2/h1H2,(H,4,5,6)",ZOBPZXTWZATXDG-UHFFFAOYSA-N,?,,128.0,106787
106791,2303-17-5,2303-17-5,CC(C)N(C(C)C)C(=O)SCC(Cl)=C(Cl)Cl,TRIALLATE,Tri-allate,"S-(2,3,3-trichloroprop-2-en-1-yl) dipropan-2-ylcarbamothioate",33588,DTXSID5024344,CC(C)N(C(C)C)C(=O)SCC(Cl)=C(Cl)Cl,"InChI=1S/C10H16Cl3NOS/c1-6(2)14(7(3)4)10(15)16-5-8(11)9(12)13/h6-7H,5H2,1-4H3",MWBPRDONLNQCFV-UHFFFAOYSA-N,?,,29.0,106791
106797,2310-17-0,2310-17-0,CCOP(=S)(OCC)SCN1C(=O)Oc2cc(Cl)ccc12,PHOSALONE,Phosalone,"S-[(6-chloro-2-oxo-1,3-benzoxazol-3(2H)-yl)methyl] O,O-diethyl phosphorodithioate",33592,DTXSID1024259,CCOP(=S)(OCC)SCN1C(=O)Oc2cc(Cl)ccc12,"InChI=1S/C12H15ClNO4PS2/c1-3-16-19(20,17-4-2)21-8-14-10-6-5-9(13)7-11(10)18-12(14)15/h5-7H,3-4,8H2,1-2H3",IOUNQDKNJZEDEP-UHFFFAOYSA-N,?,,47.75,106797
106801,2315-68-6,2315-68-6,CCCOC(=O)c1ccccc1,PROPYL BENZOATE,Propyl benzoate,propyl benzoate,33596,DTXSID4044878,CCCOC(=O)c1ccccc1,"InChI=1S/C10H12O2/c1-2-8-12-10(11)9-6-4-3-5-7-9/h3-7H,2,8H2,1H3",UDEWPOVQBGFNGE-UHFFFAOYSA-N,?,,-51.6,106801
106806,2338-12-7,2338-12-7,[O-][N+](=O)c1cc2[n][n][nH]c2cc1,5-NITROBENZOTRIAZOLE,"1H-Benzotriazole, 5-nitro-",,33599,DTXSID2062329,[O-][N+](=O)c1cc2[n][n][nH]c2cc1,"InChI=1S/C6H4N4O2/c11-10(12)4-1-2-5-6(3-4)8-9-7-5/h1-3H,(H,7,8,9)",AOCDQWRMYHJTMY-UHFFFAOYSA-N,?,,217.0,106806
106810,2345-28-0,2345-28-0,CCCCCCCCCCCCCC(C)=O,2-Pentadecanone,2-Pentadecanone,Pentadecan-2-one,33603,DTXSID6062333,CCCCCCCCCCCCCC(C)=O,"InChI=1S/C15H30O/c1-3-4-5-6-7-8-9-10-11-12-13-14-15(2)16/h3-14H2,1-2H3",CJPNOLIZCWDHJK-UHFFFAOYSA-N,?,,39.5,106810
106814,2346-00-1,2346-00-1,CC1=NCCS1,"Thiazole, 4,5-dihydro-2-methyl-","Thiazole, 4,5-dihydro-2-methyl-","2-methyl-4,5-dihydro-1,3-thiazole",33607,DTXSID1062336,CC1=NCCS1,"InChI=1S/C4H7NS/c1-4-5-2-3-6-4/h2-3H2,1H3",JUIQOABNSLTJSW-UHFFFAOYSA-N,?,,-101.0,106814
106818,2363-58-8,2363-58-8,C[C@]12CC[C@H]3[C@@H](CC[C@H]4C[C@@H]5S[C@@H]5C[C@@]43C)[C@@H]1CC[C@@H]2O,Epitiostanol,Epitiostanol,"(2alpha,3alpha,5alpha,17beta)-2,3-epithioandrostan-17-ol",33611,DTXSID2045367,CC12CCC3C(CCC4CC5SC5CC43C)C1CCC2O,"InChI=1S/C19H30OS/c1-18-8-7-14-12(13(18)5-6-17(18)20)4-3-11-9-15-16(21-15)10-19(11,14)2/h11-17,20H,3-10H2,1-2H3",OBMLHUPNRURLOK-UHFFFAOYSA-N,?,,127.0,106818
106822,2374-03-0,2374-03-0,Nc1ccc(cc1O)C(O)=O,3-HYDROXY-4-AMINOBENZOIC ACID,4-Amino-3-hydroxybenzoic acid,4-Amino-3-hydroxybenzoic acid,33615,DTXSID90178409,Nc1ccc(cc1O)C(O)=O,"InChI=1S/C7H7NO3/c8-5-2-1-4(7(10)11)3-6(5)9/h1-3,9H,8H2,(H,10,11)",NFPYJDZQOKCYIE-UHFFFAOYSA-N,?,,213.0,106822
106826,2381-15-9,2381-15-9,Cc1cc2cc3c4ccccc4ccc3cc2cc1,10-METHYL-BENZ(A)ANTHRACENE,10-Methylbenz[a]anthracene,10-methylbenzo[a]anthracene,33619,DTXSID0073293,Cc1cc2cc3c4ccccc4ccc3cc2cc1,"InChI=1S/C19H14/c1-13-6-7-15-11-16-9-8-14-4-2-3-5-18(14)19(16)12-17(15)10-13/h2-12H,1H3",WUMGYHICFXGLAB-UHFFFAOYSA-N,?,,183.3,106826
106833,2386-47-2,2386-47-2,CCCCS(O)(=O)=O,Butanesulfonic Acid,1-Butanesulfonic acid,butane-1-sulfonic acid,33623,DTXSID3062364,CCCCS(O)(=O)=O,"InChI=1S/C4H10O3S/c1-2-3-4-8(5,6)7/h2-4H2,1H3,(H,5,6,7)",QDHFHIQKOVNCNC-UHFFFAOYSA-N,?,,-15.2,106833
106838,2393-18-2,NOCAS_870966,Nc1ccc(C=CC(O)=O)cc1,"2-Propenoic acid, 3-(4-aminophenyl)-",,,33627,DTXSID40870966,Nc1ccc(C=CC(O)=O)cc1,"InChI=1S/C9H9NO2/c10-8-4-1-7(2-5-8)3-6-9(11)12/h1-6H,10H2,(H,11,12)/b6-3+",JOLPMPPNHIACPD-ZZXKWVIFSA-N,?,,121.5,106838
106842,2398-65-4,NOCAS_870968,CCCCCCCCCCCC(CCCCCCCC)c1ccccc1,9-PHENYLEICOSANE,,,33631,DTXSID60870968,CCCCCCCCCCCC(CCCCCCCC)c1ccccc1,"InChI=1S/C26H46/c1-3-5-7-9-11-12-13-15-18-22-25(26-23-19-16-20-24-26)21-17-14-10-8-6-4-2/h16,19-20,23-25H,3-15,17-18,21-22H2,1-2H3",KZUKFVROQBTEQY-UHFFFAOYSA-N,?,,17.9,106842
106846,2400-02-4,NOCAS_870970,CCCCCCCCCCCCCCCCCC(CC)c1ccccc1,3-PHENYLEICOSANE,,,33635,DTXSID30870970,CCCCCCCCCCCCCCCCCC(CC)c1ccccc1,"InChI=1S/C26H46/c1-3-5-6-7-8-9-10-11-12-13-14-15-16-17-19-22-25(4-2)26-23-20-18-21-24-26/h18,20-21,23-25H,3-17,19,22H2,1-2H3",KPJGRQMPFRXLSD-UHFFFAOYSA-N,?,,29.3,106846
106850,2401-73-2,2401-73-2,C[Si](C)(Cl)O[Si](C)(C)Cl,"Disiloxane, 1,3-dichloro-1,1,3,3-tetramethyl-","Disiloxane, 1,3-dichloro-1,1,3,3-tetramethyl-",chloro-(chloro-dimethylsilyl)oxy-dimethylsilane,33639,DTXSID6062381,C[Si](C)(Cl)O[Si](C)(C)Cl,"InChI=1S/C4H12Cl2OSi2/c1-8(2,5)7-9(3,4)6/h1-4H3",DMEXFOUCEOWRGD-UHFFFAOYSA-N,?,,-37.5,106850
106855,2404-03-7,NOCAS_870973,CN(C)P(=O)(OCC)OCC,DIETHYL DIMETHYLPHOSPHORAMIDATE,,,33644,DTXSID10870973,CN(C)P(=O)(OCC)OCC,"InChI=1S/C6H16NO3P/c1-5-9-11(8,7(3)4)10-6-2/h5-6H2,1-4H3",MSDFSXFZUKFPKX-UHFFFAOYSA-N,?,,8.3,106855
106860,2416-94-6,2416-94-6,Cc1ccc(C)c(O)c1C,"2,3,6-TRIMETHYLPHENOL","2,3,6-Trimethylphenol","2,3,6-trimethylphenol",33648,DTXSID6022187,Cc1ccc(C)c(O)c1C,"InChI=1S/C9H12O/c1-6-4-5-7(2)9(10)8(6)3/h4-5,10H,1-3H3",QQOMQLYQAXGHSU-UHFFFAOYSA-N,?,,58.0,106860