ChemID,source_casrn,CAS,SMILES,NAME,preferred_name,iupac,MPID,dsstox_substance_id,Canonical_QSARr,InChI_Code_QSARr,InChI Key_QSARr,Salt_Solvent,BP,ID
100782,104-67-6,104-67-6,CCCCCCCC1CCC(=O)O1,"2(3H)-Furanone, 5-heptyldihydro-",5-Heptyldihydro-2(3H)-furanone,5-heptyldihydrofuran-2(3H)-one,19853,DTXSID4034287,CCCCCCCC1CCC(=O)O1,"InChI=1S/C11H20O2/c1-2-3-4-5-6-7-10-8-9-11(12)13-10/h10H,2-9H2,1H3",PHXATPHONSXBIL-UHFFFAOYSA-N,?,286.0,100782
100784,104-75-6,104-75-6,CCCCC(CN)CC,2-ETHYLHEXYLAMINE,2-Ethylhexylamine,2-ethylhexan-1-amine,19855,DTXSID4025298,CCCCC(CN)CC,"InChI=1S/C8H19N/c1-3-5-6-8(4-2)7-9/h8H,3-7,9H2,1-2H3",LTHNHFOGQMKPOV-UHFFFAOYSA-N,?,169.0,100784
100785,104-76-7,104-76-7,CCCCC(CO)CC,2-ETHYL-1-HEXANOL,2-Ethyl-1-hexanol,2-ethylhexan-1-ol,19856,DTXSID5020605,CCCCC(CO)CC,"InChI=1S/C8H18O/c1-3-5-6-8(4-2)7-9/h8-9H,3-7H2,1-2H3",YIWUKEYIRIRTPP-UHFFFAOYSA-N,?,184.6,100785
100786,104-78-9,104-78-9,CCN(CCCN)CC,"1,3-Propanediamine, N,N-diethyl-","1,3-Propanediamine, N,N-diethyl-","N,N-diethylpropane-1,3-diamine",19857,DTXSID7059303,CCN(CCCN)CC,"InChI=1S/C7H18N2/c1-3-9(4-2)7-5-6-8/h3-8H2,1-2H3",QOHMWDJIBGVPIF-UHFFFAOYSA-N,?,168.5,100786
100788,104-81-4,104-81-4,Cc1ccc(CBr)cc1,"Benzene, 1-(bromomethyl)-4-methyl-","Benzene, 1-(bromomethyl)-4-methyl-",1-(Bromomethyl)-4-methylbenzene,19859,DTXSID7059305,Cc1ccc(CBr)cc1,"InChI=1S/C8H9Br/c1-7-2-4-8(6-9)5-3-7/h2-5H,6H2,1H3",WZRKSPFYXUXINF-UHFFFAOYSA-N,?,220.0,100788
100789,104-82-5,104-82-5,Cc1ccc(CCl)cc1,P-(CHLOROMETHYL)TOLUENE,4-Methylbenzyl chloride,1-(chloromethyl)-4-methylbenzene,19860,DTXSID2051477,Cc1ccc(CCl)cc1,"InChI=1S/C8H9Cl/c1-7-2-4-8(6-9)5-3-7/h2-5H,6H2,1H3",DMHZDOTYAVHSEH-UHFFFAOYSA-N,?,201.0,100789
100790,104-83-6,104-83-6,Clc1ccc(CCl)cc1,"BENZENE, 1-CHLORO-4-(CHLOROMETHYL)-",4-Chlorobenzyl chloride,1-chloro-4-(chloromethyl)benzene,19861,DTXSID4051530,Clc1ccc(CCl)cc1,"InChI=1S/C7H6Cl2/c8-5-6-1-3-7(9)4-2-6/h1-4H,5H2",JQZAEUFPPSRDOP-UHFFFAOYSA-N,?,223.0,100790
100792,104-85-8,104-85-8,Cc1ccc(cc1)C#N,4-METHYLBENZONITRILE,4-Methylbenzonitrile,4-methylbenzonitrile,19863,DTXSID6026169,Cc1ccc(cc1)C#N,"InChI=1S/C8H7N/c1-7-2-4-8(6-9)5-3-7/h2-5H,1H3",VCZNNAKNUVJVGX-UHFFFAOYSA-N,?,217.0,100792
100793,104-87-0,104-87-0,Cc1ccc(C=O)cc1,P-TOLUALDEHYDE,4-Methylbenzaldehyde,4-methylbenzaldehyde,19864,DTXSID9041520,Cc1ccc(C=O)cc1,"InChI=1S/C8H8O/c1-7-2-4-8(6-9)5-3-7/h2-6H,1H3",FXLOVSHXALFLKQ-UHFFFAOYSA-N,?,204.5,100793
100794,104-88-1,104-88-1,O=Cc1ccc(Cl)cc1,4-CHLOROBENZALDEHYDE,4-Chlorobenzaldehyde,4-chlorobenzaldehyde,19865,DTXSID2021860,O=Cc1ccc(Cl)cc1,InChI=1S/C7H5ClO/c8-7-3-1-6(5-9)2-4-7/h1-5H,AVPYQKSLYISFPO-UHFFFAOYSA-N,?,213.5,100794
100796,104-92-7,104-92-7,COc1ccc(Br)cc1,4-BROMOANISOLE,"Benzene, 1-bromo-4-methoxy-",1-Bromo-4-methoxybenzene,19867,DTXSID2059308,COc1ccc(Br)cc1,"InChI=1S/C7H7BrO/c1-9-7-4-2-6(8)3-5-7/h2-5H,1H3",QJPJQTDYNZXKQF-UHFFFAOYSA-N,?,215.0,100796
100797,104-93-8,104-93-8,Cc1ccc(cc1)OC,P-METHYLANISOLE,1-Methoxy-4-methylbenzene,1-methoxy-4-methylbenzene,19868,DTXSID9026710,Cc1ccc(cc1)OC,"InChI=1S/C8H10O/c1-7-3-5-8(9-2)6-4-7/h3-6H,1-2H3",CHLICZRVGGXEOD-UHFFFAOYSA-N,?,175.5,100797
100798,104-94-9,104-94-9,COc1ccc(N)cc1,4-METHOXYANILINE,4-Methoxyaniline,4-methoxyaniline,19869,DTXSID7024532,COc1ccc(N)cc1,"InChI=1S/C7H9NO/c1-9-7-4-2-6(8)3-5-7/h2-5H,8H2,1H3",BHAAPTBBJKJZER-UHFFFAOYSA-N,?,243.0,100798
100800,105-05-5,105-05-5,CCc1ccc(CC)cc1,P-DIETHYLBENZENE,"1,4-Diethylbenzene","1,4-diethylbenzene",19871,DTXSID4026711,CCc1ccc(CC)cc1,"InChI=1S/C10H14/c1-3-9-5-7-10(4-2)8-6-9/h5-8H,3-4H2,1-2H3",DSNHSQKRULAAEI-UHFFFAOYSA-N,?,183.7,100800
100801,105-08-8,105-08-8,OCC1CCC(CC1)CO,"1,4-Cyclohexanedimethanol","1,4-Cyclohexanedimethanol","cyclohexane-1,4-diyldimethanol",19872,DTXSID9026712,OCC1CCC(CC1)CO,"InChI=1S/C8H16O2/c9-5-7-1-2-8(6-10)4-3-7/h7-10H,1-6H2",YIMQCDZDWXUDCA-UHFFFAOYSA-N,?,285.0,100801
100802,105-13-5,105-13-5,COc1ccc(CO)cc1,P-METHOXYBENZYL ALCOHOL,(4-Methoxyphenyl)methanol,(4-methoxyphenyl)methanol,19873,DTXSID6044357,COc1ccc(CO)cc1,"InChI=1S/C8H10O2/c1-10-8-4-2-7(6-9)3-5-8/h2-5,9H,6H2,1H3",MSHFRERJPWKJFX-UHFFFAOYSA-N,?,259.1,100802
100804,105-31-7,105-31-7,CCCC(O)C#C,1-HEXYN-3-OL,Hex-1-yn-3-ol,hex-1-yn-3-ol,19875,DTXSID4051536,CCCC(O)C#C,"InChI=1S/C6H10O/c1-3-5-6(7)4-2/h2,6-7H,3,5H2,1H3",LTFTWJYRQNTCHI-UHFFFAOYSA-N,?,142.0,100804
100805,105-34-0,105-34-0,COC(=O)CC#N,METHYL CYANOACETATE,Methyl cyanoacetate,methyl cyanoacetate,19876,DTXSID8033649,COC(=O)CC#N,"InChI=1S/C4H5NO2/c1-7-4(6)2-3-5/h2H2,1H3",ANGDWNBGPBMQHW-UHFFFAOYSA-N,?,200.5,100805
100806,105-36-2,105-36-2,CCOC(=O)CBr,"BROMOACETIC ACID, ETHYL ESTER",Ethyl bromoacetate,ethyl bromoacetate,19877,DTXSID4020587,CCOC(=O)CBr,"InChI=1S/C4H7BrO2/c1-2-7-4(6)3-5/h2-3H2,1H3",PQJJJMRNHATNKG-UHFFFAOYSA-N,?,168.5,100806
100808,105-38-4,105-38-4,CCC(=O)OC=C,VINYL PROPIONATE,Vinyl propionate,vinyl propionate,19879,DTXSID9051537,CCC(=O)OC=C,"InChI=1S/C5H8O2/c1-3-5(6)7-4-2/h4H,2-3H2,1H3",UIWXSTHGICQLQT-UHFFFAOYSA-N,?,91.2,100808
100809,105-39-5,105-39-5,CCOC(=O)CCl,ETHYL CHLOROACETATE,Ethyl chloroacetate,ethyl chloroacetate,19880,DTXSID4026715,CCOC(=O)CCl,"InChI=1S/C4H7ClO2/c1-2-7-4(6)3-5/h2-3H2,1H3",VEUUMBGHMNQHGO-UHFFFAOYSA-N,?,144.3,100809
100810,105-40-8,105-40-8,CCOC(=O)NC,"N-METHYLCARBAMIC ACID, ET ESTER","N-Methylcarbamic acid, ethyl ester",ethyl methylcarbamate,19881,DTXSID2031746,CCOC(=O)NC,"InChI=1S/C4H9NO2/c1-3-7-4(6)5-2/h3H2,1-2H3,(H,5,6)",SURZCVYFPAXNGN-UHFFFAOYSA-N,?,170.0,100810
100812,105-42-0,NOCAS_870448,CCC(C)CC(C)=O,"2-HEXANONE, 4-METHYL-",,,19883,DTXSID60870448,CCC(C)CC(C)=O,"InChI=1S/C7H14O/c1-4-6(2)5-7(3)8/h6H,4-5H2,1-3H3",XUPXMIAWKPTZLZ-UHFFFAOYSA-N,?,144.5,100812
100813,105-45-3,105-45-3,CC(=O)CC(=O)OC,METHYL ACETOACETATE,Methyl acetoacetate,methyl 3-oxobutanoate,19884,DTXSID9026716,CC(=O)CC(=O)OC,"InChI=1S/C5H8O3/c1-4(6)3-5(7)8-2/h3H2,1-2H3",WRQNANDWMGAFTP-UHFFFAOYSA-N,?,171.7,100813
100814,105-46-4,105-46-4,CCC(C)OC(C)=O,S-BUTYLACETATE,Butan-2-yl acetate,butan-2-yl acetate,19885,DTXSID0047612,CCC(C)OC(C)=O,"InChI=1S/C6H12O2/c1-4-5(2)8-6(3)7/h5H,4H2,1-3H3",DCKVNWZUADLDEH-UHFFFAOYSA-N,?,112.0,100814
100816,105-50-0,105-50-0,CCOC(=O)CC(=O)CC(=O)OCC,"Pentanedioic acid, 3-oxo-, diethyl ester","Pentanedioic acid, 3-oxo-, diethyl ester",Diethyl 3-oxopentanedioate,19887,DTXSID1059317,CCOC(=O)CC(=O)CC(=O)OCC,"InChI=1S/C9H14O5/c1-3-13-8(11)5-7(10)6-9(12)14-4-2/h3-6H2,1-2H3",ZSANYRMTSBBUCA-UHFFFAOYSA-N,?,250.0,100816
100817,105-53-3,105-53-3,CCOC(=O)CC(=O)OCC,DIETHYL MALONATE,Diethyl propanedioate,diethyl propanedioate,19888,DTXSID7021863,CCOC(=O)CC(=O)OCC,"InChI=1S/C7H12O4/c1-3-10-6(8)5-7(9)11-4-2/h3-5H2,1-2H3",IYXGSMUGOJNHAZ-UHFFFAOYSA-N,?,200.0,100817
100818,105-54-4,105-54-4,CCOC(=O)CCC,ETHYLBUTYRATE,Ethyl butyrate,ethyl butanoate,19889,DTXSID6040111,CCOC(=O)CCC,"InChI=1S/C6H12O2/c1-3-5-6(7)8-4-2/h3-5H2,1-2H3",OBNCKNCVKJNDBV-UHFFFAOYSA-N,?,121.5,100818
100820,105-57-7,105-57-7,CC(OCC)OCC,"1,1-DIETHOXYETHANE",Acetal,"1,1-diethoxyethane",19891,DTXSID6030607,CC(OCC)OCC,"InChI=1S/C6H14O2/c1-4-7-6(3)8-5-2/h6H,4-5H2,1-3H3",DHKHKXVYLBGOIT-UHFFFAOYSA-N,?,102.2,100820
100821,105-58-8,105-58-8,CCOC(=O)OCC,DIETHYL CARBONATE,Diethyl carbonate,diethyl carbonate,19892,DTXSID3025041,CCOC(=O)OCC,"InChI=1S/C5H10O3/c1-3-7-5(6)8-4-2/h3-4H2,1-2H3",OIFBSDVPJOWBCH-UHFFFAOYSA-N,?,126.0,100821
100822,105-59-9,105-59-9,CN(CCO)CCO,N-METHYLDIETHANOLAMINE,N-Methyldiethanolamine,"2,2'-(methylimino)diethanol",19893,DTXSID8025591,CN(CCO)CCO,"InChI=1S/C5H13NO2/c1-6(2-4-7)3-5-8/h7-8H,2-5H2,1H3",CRVGTESFCCXCTH-UHFFFAOYSA-N,?,247.0,100822
100824,105-66-8,105-66-8,CCCOC(=O)CCC,N-PROPYLBUTYRATE,"Butanoic acid, propyl ester",Propyl butanoate,19895,DTXSID6059318,CCCOC(=O)CCC,"InChI=1S/C7H14O2/c1-3-5-7(8)9-6-4-2/h3-6H2,1-2H3",HUAZGNHGCJGYNP-UHFFFAOYSA-N,?,143.0,100824
100825,105-67-9,105-67-9,Cc1cc(C)c(O)cc1,"2,4-DIMETHYLPHENOL","2,4-Dimethylphenol","2,4-dimethylphenol",19896,DTXSID2021864,Cc1cc(C)c(O)cc1,"InChI=1S/C8H10O/c1-6-3-4-8(9)7(2)5-6/h3-5,9H,1-2H3",KUFFULVDNCHOFZ-UHFFFAOYSA-N,?,210.9,100825
100826,105-68-0,105-68-0,CCC(=O)OCCC(C)C,"1-Butanol, 3-methyl-, propanoate",3-Methylbutyl propanoate,3-methylbutyl propanoate,19897,DTXSID5047613,CCC(=O)OCCC(C)C,"InChI=1S/C8H16O2/c1-4-8(9)10-6-5-7(2)3/h7H,4-6H2,1-3H3",XAOGXQMKWQFZEM-UHFFFAOYSA-N,?,160.2,100826
100829,105-83-9,105-83-9,CN(CCCN)CCCN,"1,3-Propanediamine, N-(3-aminopropyl)-N-methyl-","N-(3-Aminopropyl)-N-methylpropane-1,3-diamine","N-(3-aminopropyl)-N-methylpropane-1,3-diamine",19899,DTXSID1044510,CN(CCCN)CCCN,"InChI=1S/C7H19N3/c1-10(6-2-4-8)7-3-5-9/h2-9H2,1H3",KMBPCQSCMCEPMU-UHFFFAOYSA-N,?,232.5,100829
100830,105-87-3|141-12-8|16409-44-2,105-87-3|141-12-8|16409-44-2,CC(C)=CCC/C(/C)=C/COC(C)=O,"GERANIOL ACETATE, NERYL ACETATE, Geranyl Acetate (isomer mix)",Geranyl acetate,"(2E)-3,7-dimethylocta-2,6-dien-1-yl acetate",19900|20527|24237,DTXSID0020654|DTXSID2047068|DTXSID8048153,CC(C)=CCCC(C)=CCOC(C)=O,"InChI=1S/C12H20O2/c1-10(2)6-5-7-11(3)8-9-14-12(4)13/h6,8H,5,7,9H2,1-4H3/b11-8+",HIGQPQRQIQDZMP-DHZHZOJOSA-N,?,238.33333333333297,100830
100831,105-90-8,105-90-8,CC(C)=CCC/C(/C)=C/COC(=O)CC,"2,6-Octadien-1-ol, 3,7-dimethyl-, propanoate, (2",Geranyl propionate,"(2E)-3,7-dimethylocta-2,6-dien-1-yl propionate",19901,DTXSID8051540,CC(C)=CCCC(C)=CCOC(=O)CC,"InChI=1S/C13H22O2/c1-5-13(14)15-10-9-12(4)8-6-7-11(2)3/h7,9H,5-6,8,10H2,1-4H3/b12-9+",BYCHQEILESTMQU-FMIVXFBMSA-N,?,253.0,100831
100833,106-21-8,106-21-8,CC(C)CCCC(C)CCO,"3,7-Dimethyloctan-1-ol","3,7-Dimethyloctan-1-ol","3,7-dimethyloctan-1-ol",19903,DTXSID5044360,CC(C)CCCC(C)CCO,"InChI=1S/C10H22O/c1-9(2)5-4-6-10(3)7-8-11/h9-11H,4-8H2,1-3H3",PRNCMAKCNVRZFX-UHFFFAOYSA-N,?,212.5,100833
100834,106-22-9|26489-01-0,106-22-9,CC(CCO)CCC=C(C)C,"3,7-DIMETHYL-6-OCTEN-1-OL, (+-)-CITRONELLOL",Citronellol,"3,7-dimethyloct-6-en-1-ol",19904|24467,DTXSID3026726,CC(CCO)CCC=C(C)C,"InChI=1S/C10H20O/c1-9(2)5-4-6-10(3)7-8-11/h5,10-11H,4,6-8H2,1-3H3",QMVPMAAFGQKVCJ-UHFFFAOYSA-N,?,224.25,100834
100835,106-24-1|106-25-2,106-24-1|106-25-2,CC(C)=CCC/C(/C)=C/CO,"GERANIOL, 2,6-Octadien-1-ol, 3,7-dimethyl-, (Z)-",Geraniol,"(2E)-3,7-dimethylocta-2,6-dien-1-ol",19905|19906,DTXSID8026727|DTXSID3026728,CC(C)=CCCC(C)=CCO,"InChI=1S/C10H18O/c1-9(2)5-4-6-10(3)7-8-11/h5,7,11H,4,6,8H2,1-3H3/b10-7+",GLZPCOQZEFWAFX-JXMROGBWSA-N,?,227.5,100835
100838,106-30-9,106-30-9,CCCCCCC(=O)OCC,ETHYL HEPTANOATE,Ethyl heptanoate,ethyl heptanoate,19908,DTXSID1040112,CCCCCCC(=O)OCC,"InChI=1S/C9H18O2/c1-3-5-6-7-8-9(10)11-4-2/h3-8H2,1-2H3",TVQGDYNRXLTQAP-UHFFFAOYSA-N,?,187.0,100838
100839,106-31-0,106-31-0,CCCC(=O)OC(=O)CCC,BUTYRIC ANHYDRIDE,Butanoic anhydride,butanoic anhydride,19909,DTXSID8026729,CCCC(=O)OC(=O)CCC,"InChI=1S/C8H14O3/c1-3-5-7(9)11-8(10)6-4-2/h3-6H2,1-2H3",YHASWHZGWUONAO-UHFFFAOYSA-N,?,200.0,100839
100840,106-32-1,106-32-1,CCCCCCCC(=O)OCC,ETHYL OCTANOATE,Ethyl octanoate,ethyl octanoate,19910,DTXSID8051542,CCCCCCCC(=O)OCC,"InChI=1S/C10H20O2/c1-3-5-6-7-8-9-10(11)12-4-2/h3-9H2,1-2H3",YYZUSRORWSJGET-UHFFFAOYSA-N,?,208.5,100840
100842,106-35-4,106-35-4,CCCCC(=O)CC,3-HEPTANONE,3-Heptanone,heptan-3-one,19912,DTXSID2047438,CCCCC(=O)CC,"InChI=1S/C7H14O/c1-3-5-6-7(8)4-2/h3-6H2,1-2H3",NGAZZOYFWWSOGK-UHFFFAOYSA-N,?,147.0,100842
100843,106-36-5,106-36-5,CCC(=O)OCCC,N-PROPYLPROPIONATE,Propyl propionate,propyl propanoate,19913,DTXSID4042337,CCC(=O)OCCC,"InChI=1S/C6H12O2/c1-3-5-8-6(7)4-2/h3-5H2,1-2H3",MCSINKKTEDDPNK-UHFFFAOYSA-N,?,122.5,100843
100844,106-37-6,106-37-6,Brc1ccc(Br)cc1,"1,4-DIBROMOBENZENE","1,4-Dibromobenzene","1,4-dibromobenzene",19914,DTXSID4024012,Brc1ccc(Br)cc1,InChI=1S/C6H4Br2/c7-5-1-2-6(8)4-3-5/h1-4H,SWJPEBQEEAHIGZ-UHFFFAOYSA-N,?,218.5,100844
100846,106-39-8,106-39-8,Clc1ccc(Br)cc1,P-BROMOCHLOROBENZENE,p-Bromoclorobenzene,1-Bromo-4-chlorobenzene,19916,DTXSID4059338,Clc1ccc(Br)cc1,InChI=1S/C6H4BrCl/c7-5-1-3-6(8)4-2-5/h1-4H,NHDODQWIKUYWMW-UHFFFAOYSA-N,?,196.0,100846
100847,106-41-2,106-41-2,Oc1ccc(Br)cc1,P-BROMOPHENOL,4-Bromophenol,4-bromophenol,19917,DTXSID3051543,Oc1ccc(Br)cc1,"InChI=1S/C6H5BrO/c7-5-1-3-6(8)4-2-5/h1-4,8H",GZFGOTFRPZRKDS-UHFFFAOYSA-N,?,238.0,100847
100848,106-42-3,106-42-3,Cc1ccc(C)cc1,P-XYLENE,p-Xylene,"1,4-dimethylbenzene",19918,DTXSID2021868,Cc1ccc(C)cc1,"InChI=1S/C8H10/c1-7-3-5-8(2)6-4-7/h3-6H,1-2H3",URLKBWYHVLBVBO-UHFFFAOYSA-N,?,138.3,100848
100850,106-44-5,106-44-5,Cc1ccc(O)cc1,P-CRESOL,p-Cresol,4-methylphenol,19920,DTXSID7021869,Cc1ccc(O)cc1,"InChI=1S/C7H8O/c1-6-2-4-7(8)5-3-6/h2-5,8H,1H3",IWDCLRJOBJJRNH-UHFFFAOYSA-N,?,201.9,100850
100851,106-45-6,106-45-6,Cc1ccc(S)cc1,4-METHYLBENZENETHIOL,4-Thiocresol,4-methylbenzenethiol,19921,DTXSID5048188,Cc1ccc(S)cc1,"InChI=1S/C7H8S/c1-6-2-4-7(8)5-3-6/h2-5,8H,1H3",WLHCBQAPPJAULW-UHFFFAOYSA-N,?,195.0,100851
100852,106-46-7,106-46-7,Clc1ccc(Cl)cc1,"1,4-DICHLOROBENZENE","1,4-Dichlorobenzene","1,4-dichlorobenzene",19922,DTXSID1020431,Clc1ccc(Cl)cc1,InChI=1S/C6H4Cl2/c7-5-1-2-6(8)4-3-5/h1-4H,OCJBOOLMMGQPQU-UHFFFAOYSA-N,?,174.0,100852
100854,106-48-9,106-48-9,Oc1ccc(Cl)cc1,4-CHLOROPHENOL,4-Chlorophenol,4-chlorophenol,19924,DTXSID1021871,Oc1ccc(Cl)cc1,"InChI=1S/C6H5ClO/c7-5-1-3-6(8)4-2-5/h1-4,8H",WXNZTHHGJRFXKQ-UHFFFAOYSA-N,?,220.0,100854
100855,106-49-0,106-49-0,Cc1ccc(N)cc1,P-TOLUIDINE,4-Methylaniline,4-methylaniline,19925,DTXSID6021872,Cc1ccc(N)cc1,"InChI=1S/C7H9N/c1-6-2-4-7(8)5-3-6/h2-5H,8H2,1H3",RZXMPPFPUUCRFN-UHFFFAOYSA-N,?,200.4,100855
100856,106-50-3,106-50-3,Nc1ccc(N)cc1,"1,4-BENZENEDIAMINE","1,4-Benzenediamine","benzene-1,4-diamine",19926,DTXSID9021138,Nc1ccc(N)cc1,"InChI=1S/C6H8N2/c7-5-1-2-6(8)4-3-5/h1-4H,7-8H2",CBCKQZAAMUWICA-UHFFFAOYSA-N,?,267.0,100856
100858,106-53-6,106-53-6,Sc1ccc(Br)cc1,"Benzenethiol, 4-bromo-","Benzenethiol, 4-bromo-",4-Bromobenzenethiol,19928,DTXSID8059340,Sc1ccc(Br)cc1,"InChI=1S/C6H5BrS/c7-5-1-3-6(8)4-2-5/h1-4,8H",FTBCOQFMQSTCQQ-UHFFFAOYSA-N,?,230.5,100858
100859,106-54-7,106-54-7,Sc1ccc(Cl)cc1,4-CHLOROBENZENETHIOL,"Benzenethiol, 4-chloro-",4-Chlorobenzenethiol,19929,DTXSID3059341,Sc1ccc(Cl)cc1,"InChI=1S/C6H5ClS/c7-5-1-3-6(8)4-2-5/h1-4,8H",VZXOZSQDJJNBRC-UHFFFAOYSA-N,?,206.0,100859
100860,106-55-8|2815-34-1|6284-84-0,NOCAS_861721|2815-34-1|6284-84-0,CC1CNC(C)CN1,"2,5-DIMETHYLPIPERAZINE, trans-2,5-Dimethylpiperazine, PIPERAZINE, 2,5-DIMETHYL-, CIS-",,,19930|23319|23901,DTXSID70861721|DTXSID90878851|DTXSID30878850,CC1CNC(C)CN1,"InChI=1S/C6H14N2/c1-5-3-8-6(2)4-7-5/h5-8H,3-4H2,1-2H3",NSMWYRLQHIXVAP-UHFFFAOYSA-N,?,162.66666666666697,100860
100862,106-63-8,106-63-8,CC(C)COC(=O)C=C,ISOBUTYL ACRYLATE,Isobutyl acrylate,2-methylpropyl prop-2-enoate,19932,DTXSID1021873,CC(C)COC(=O)C=C,"InChI=1S/C7H12O2/c1-4-7(8)9-5-6(2)3/h4,6H,1,5H2,2-3H3",CFVWNXQPGQOHRJ-UHFFFAOYSA-N,?,132.0,100862
100863,106-65-0,106-65-0,COC(=O)CCC(=O)OC,DIMETHYL SUCCINATE,Dimethyl succinate,dimethyl butanedioate,19933,DTXSID5025152,COC(=O)CCC(=O)OC,"InChI=1S/C6H10O4/c1-9-5(7)3-4-6(8)10-2/h3-4H2,1-2H3",MUXOBHXGJLMRAB-UHFFFAOYSA-N,?,196.4,100863
100864,106-68-3,106-68-3,CCCCCC(=O)CC,3-OCTANONE,3-Octanone,octan-3-one,19934,DTXSID3041954,CCCCCC(=O)CC,"InChI=1S/C8H16O/c1-3-5-6-7-8(9)4-2/h3-7H2,1-2H3",RHLVCLIPMVJYKS-UHFFFAOYSA-N,?,167.5,100864
100866,106-73-0,106-73-0,CCCCCCC(=O)OC,METHYL HEPTANOATE,Methyl heptanoate,METHYL HEPTANOATE,19936,DTXSID3059345,CCCCCCC(=O)OC,"InChI=1S/C8H16O2/c1-3-4-5-6-7-8(9)10-2/h3-7H2,1-2H3",XNCNNDVCAUWAIT-UHFFFAOYSA-N,?,174.0,100866
100867,106-74-1,106-74-1,CCOCCOC(=O)C=C,2-ETHOXYETHYL ACRYLATE,2-Ethoxyethyl acrylate,2-ethoxyethyl acrylate,19937,DTXSID3051545,CCOCCOC(=O)C=C,"InChI=1S/C7H12O3/c1-3-7(8)10-6-5-9-4-2/h3H,1,4-6H2,2H3",FWWXYLGCHHIKNY-UHFFFAOYSA-N,?,174.0,100867
100868,106-75-2,106-75-2,O=C(Cl)OCCOCCOC(=O)Cl,Diethlylene glycol bis chloroformate,"Carbonochloridic acid, oxydi-2,1-ethanediyl ester","oxydiethane-2,1-diyl dicarbonochloridate",19938,DTXSID2026739,O=C(Cl)OCCOCCOC(=O)Cl,InChI=1S/C6H8Cl2O5/c7-5(9)12-3-1-11-2-4-13-6(8)10/h1-4H2,XFSAZBKSWGOXRH-UHFFFAOYSA-N,?,229.0,100868
100871,106-88-7,106-88-7,CCC1CO1,"1,2-BUTYLENEOXIDE","1,2-Epoxybutane",2-ethyloxirane,19940,DTXSID6020569,CCC1CO1,"InChI=1S/C4H8O/c1-2-4-3-5-4/h4H,2-3H2,1H3",RBACIKXCRWGCBB-UHFFFAOYSA-N,?,63.3,100871
100872,106-89-8|13403-37-7,106-89-8,ClCC1CO1,"1-CHLORO-2,3-EPOXYPROPANE, (CHLOROMETHYL)OXIRANE",Epichlorohydrin,C3H5ClO,19941|24135,DTXSID1020566,ClCC1CO1,"InChI=1S/C3H5ClO/c4-1-3-2-5-3/h3H,1-2H2",BRLQWZUYTZBJKN-UHFFFAOYSA-N,?,116.555,100872
100874,106-92-3,106-92-3,C=CCOCC1CO1,"Oxirane,  (2-propenyloxy)methyl -",Allyl glycidyl ether,2-[(prop-2-en-1-yloxy)methyl]oxirane,19942,DTXSID9039232,C=CCOCC1CO1,"InChI=1S/C6H10O2/c1-2-3-7-4-6-5-8-6/h2,6H,1,3-5H2",LSWYGACWGAICNM-UHFFFAOYSA-N,?,154.0,100874
100876,106-94-5,106-94-5,CCCBr,1-BROMOPROPANE,1-Bromopropane,1-bromopropane,19944,DTXSID6021874,CCCBr,"InChI=1S/C3H7Br/c1-2-3-4/h2-3H2,1H3",CYNYIHKIEHGYOZ-UHFFFAOYSA-N,?,71.1,100876
100877,106-95-6,106-95-6,C=CCBr,3-BROMO-1-PROPENE,Allyl bromide,3-bromoprop-1-ene,19945,DTXSID8024442,C=CCBr,"InChI=1S/C3H5Br/c1-2-3-4/h2H,1,3H2",BHELZAPQIKSEDF-UHFFFAOYSA-N,?,70.1,100877
100878,106-96-7,106-96-7,C#CCBr,"1-Propyne, 3-bromo-",Propargyl bromide,3-bromoprop-1-yne,19946,DTXSID3042340,C#CCBr,"InChI=1S/C3H3Br/c1-2-3-4/h1H,3H2",YORCIIVHUBAYBQ-UHFFFAOYSA-N,?,89.0,100878
100880,106-98-9,106-98-9,CCC=C,1-BUTENE,1-Butene,but-1-ene,19948,DTXSID1026746,CCC=C,"InChI=1S/C4H8/c1-3-4-2/h3H,1,4H2,2H3",VXNZUUAINFGPBY-UHFFFAOYSA-N,?,-6.2,100880
100881,106-99-0,106-99-0,C=CC=C,"1,3-BUTADIENE","1,3-Butadiene","buta-1,3-diene",19949,DTXSID3020203,C=CC=C,"InChI=1S/C4H6/c1-3-4-2/h3-4H,1-2H2",KAKZBPTYRLMSJV-UHFFFAOYSA-N,?,-4.4,100881
100882,107-00-6,107-00-6,CCC#C,1-BUTYNE,1-Butyne,but-1-yne,19950,DTXSID4029141,CCC#C,"InChI=1S/C4H6/c1-3-4-2/h1H,4H2,2H3",KDKYADYSIPSCCQ-UHFFFAOYSA-N,?,8.0,100882
100885,107-03-9,107-03-9,CCCS,1-PROPANETHIOL,1-Propanethiol,propane-1-thiol,19952,DTXSID5026750,CCCS,"InChI=1S/C3H8S/c1-2-3-4/h4H,2-3H2,1H3",SUVIGLJNEAMWEG-UHFFFAOYSA-N,?,67.8,100885
100886,107-04-0,107-04-0,ClCCBr,1-BROMO-2-CHLOROETHANE,1-Chloro-2-bromoethane,1-bromo-2-chloroethane,19953,DTXSID4024775,ClCCBr,InChI=1S/C2H4BrCl/c3-1-2-4/h1-2H2,IBYHHJPAARCAIE-UHFFFAOYSA-N,?,107.0,100886
100887,107-05-1,107-05-1,C=CCCl,3-CHLOROPROPYLENE,Allyl chloride,3-chloroprop-1-ene,19954,DTXSID4039231,C=CCCl,"InChI=1S/C3H5Cl/c1-2-3-4/h2H,1,3H2",OSDWBNJEKMUWAV-UHFFFAOYSA-N,?,45.1,100887
100889,107-07-3,107-07-3,OCCCl,2-CHLOROETHANOL,2-Chloroethanol,2-chloroethanol,19956,DTXSID1021877,OCCCl,"InChI=1S/C2H5ClO/c3-1-2-4/h4H,1-2H2",SZIFAVKTNFCBPC-UHFFFAOYSA-N,?,128.6,100889
100890,107-08-4,26914-02-3,CCCI,1-IODOPROPANE,"Propane, iodo-",1-IODOPROPANE,19957,DTXSID5075317,CCCI,"InChI=1S/C3H7I/c1-2-3-4/h2-3H2,1H3",PVWOIHVRPOBWPI-UHFFFAOYSA-N,?,102.6,100890
100891,107-10-8,107-10-8,CCCN,PROPYLAMINE,Propylamine,propan-1-amine,19958,DTXSID6021878,CCCN,"InChI=1S/C3H9N/c1-2-3-4/h2-4H2,1H3",WGYKZJWCGVVSQN-UHFFFAOYSA-N,?,48.5,100891
100893,107-12-0,107-12-0,CCC#N,PROPIONITRILE,Propionitrile,propanenitrile,19960,DTXSID1021879,CCC#N,"InChI=1S/C3H5N/c1-2-3-4/h2H2,1H3",FVSKHRXBFJPNKK-UHFFFAOYSA-N,?,97.1,100893
100894,107-13-1,107-13-1,C=CC#N,ACRYLONITRILE,Acrylonitrile,prop-2-enenitrile,19961,DTXSID5020029,C=CC#N,"InChI=1S/C3H3N/c1-2-3-4/h2H,1H2",NLHHRLWOUZZQLW-UHFFFAOYSA-N,?,77.3,100894
100895,107-14-2,107-14-2,N#CCCl,CHLOROACETONITRILE,Chloroacetonitrile,chloroacetonitrile,19962,DTXSID7021524,N#CCCl,InChI=1S/C2H2ClN/c3-1-2-4/h1H2,RENMDAKOXSCIGH-UHFFFAOYSA-N,?,126.0,100895
100897,107-16-4,107-16-4,N#CCO,"Acetonitrile, hydroxy-",Hydroxyacetonitrile,hydroxyacetonitrile,19964,DTXSID3025417,N#CCO,"InChI=1S/C2H3NO/c3-1-2-4/h4H,2H2",LTYRAPJYLUPLCI-UHFFFAOYSA-N,?,183.0,100897
100898,107-18-6,107-18-6,C=CCO,ALLYL ALCOHOL,Allyl alcohol,prop-2-en-1-ol,19965,DTXSID8020044,C=CCO,"InChI=1S/C3H6O/c1-2-3-4/h2,4H,1,3H2",XXROGKLTLUQVRX-UHFFFAOYSA-N,?,97.0,100898
100899,107-19-7,107-19-7,C#CCO,PROPARGYL ALCOHOL,Propargyl alcohol,prop-2-yn-1-ol,19966,DTXSID5021883,C#CCO,"InChI=1S/C3H4O/c1-2-3-4/h1,4H,3H2",TVDSBUOJIPERQY-UHFFFAOYSA-N,?,113.6,100899
100901,107-21-1,107-21-1,OCCO,ETHYLENE GLYCOL,Ethylene glycol,C2H6O2,19968,DTXSID8020597,OCCO,"InChI=1S/C2H6O2/c3-1-2-4/h3-4H,1-2H2",LYCAIKOWRPUZTN-UHFFFAOYSA-N,?,197.3,100901