ChemID,source_casrn,CAS,SMILES,NAME,preferred_name,iupac,MPID,dsstox_substance_id,Canonical_QSARr,InChI_Code_QSARr,InChI Key_QSARr,Salt_Solvent,Salt_Solvent_ID,MP,ID
108757,26259-45-0,26259-45-0,COc1[n]c(NCC)[n]c(NC(C)CC)[n]1,SECBUMETON,Secbumeton,"N-(butan-2-yl)-N'-ethyl-6-methoxy-1,3,5-triazine-2,4-diamine",35303,DTXSID8037594,COc1[n]c(NCC)[n]c(NC(C)CC)[n]1,"InChI=1S/C10H19N5O/c1-5-7(3)12-9-13-8(11-6-2)14-10(15-9)16-4/h7H,5-6H2,1-4H3,(H2,11,12,13,14,15)",ZJMZZNVGNSWOOM-UHFFFAOYSA-N,?,,87.0,108757
108767,26730-14-3,26730-14-3,CC(CCCCCC)CCCCCC,"TRIDECANE, 7-METHYL-",7-Methyltridecane,7-Methyltridecane,35307,DTXSID40181241,CC(CCCCCC)CCCCCC,"InChI=1S/C14H30/c1-4-6-8-10-12-14(3)13-11-9-7-5-2/h14H,4-13H2,1-3H3",BHDKLTKHPZWYCV-UHFFFAOYSA-N,?,,-37.2,108767
108772,26839-75-8,26839-75-8,CC(C)(C)NC[C@H](O)COc1[n][s][n]c1N1CCOCC1,TIMOLOL,(S)-Timolol,C13H24N4O3S,35311,DTXSID4023674,CC(C)(C)NCC(O)COc1[n][s][n]c1N1CCOCC1,"InChI=1S/C13H24N4O3S/c1-13(2,3)14-8-10(18)9-20-12-11(15-21-16-12)17-4-6-19-7-5-17/h10,14,18H,4-9H2,1-3H3",BLJRIMJGRPQVNF-UHFFFAOYSA-N,?,,202.0,108772
108780,27355-22-2,27355-22-2,O=C1OCc2c1c(Cl)c(Cl)c(Cl)c2Cl,TETRACHLOROPHTHALIDE,Fthalide,"4,5,6,7-tetrachloro-2-benzofuran-1(3H)-one",35315,DTXSID2058045,O=C1OCc2c1c(Cl)c(Cl)c(Cl)c2Cl,InChI=1S/C8H2Cl4O2/c9-4-2-1-14-8(13)3(2)5(10)7(12)6(4)11/h1H2,NMWKWBPNKPGATC-UHFFFAOYSA-N,?,,209.5,108780
108784,27541-88-4,27541-88-4,O=C1C(NC(=O)C(Cl)Cl)=C(Cl)C(=O)c2ccccc12,Quinonamid,Quinonamid,"2,2-dichloro-N-(3-chloro-1,4-dioxo-1,4-dihydronaphthalen-2-yl)acetamide",35319,DTXSID2058047,O=C1C(NC(=O)C(Cl)Cl)=C(Cl)C(=O)c2ccccc12,"InChI=1S/C12H6Cl3NO3/c13-7-8(16-12(19)11(14)15)10(18)6-4-2-1-3-5(6)9(7)17/h1-4,11H,(H,16,19)",ZIEWAMOXCOLNSJ-UHFFFAOYSA-N,?,,212.5,108784
108790,27876-94-4,NOCAS_865402,C/C(/C=C/C=C(\C)/C(O)=O)=C\C=C\C=C(/C)\C=C\C=C(/C)\C(O)=O,Crocetin,,,35323,DTXSID30865402,CC(C=CC=C(C)C(O)=O)=CC=CC=C(C)C=CC=C(C)C(O)=O,"InChI=1S/C20H24O4/c1-15(11-7-13-17(3)19(21)22)9-5-6-10-16(2)12-8-14-18(4)20(23)24/h5-14H,1-4H3,(H,21,22)(H,23,24)/b6-5+,11-7+,12-8+,15-9+,16-10+,17-13-,18-14-",PANKHBYNKQNAHN-YBLHRYGESA-N,?,,286.0,108790
108794,28217-97-2,28217-97-2,Cc1cc(Cl)ccc1NC(=S)N(C)C,Chloromethiuron,Chloromethiuron,"3-(4-chloro-2-methylphenyl)-1,1-dimethylthiourea",35327,DTXSID2058049,Cc1cc(Cl)ccc1NC(=S)N(C)C,"InChI=1S/C10H13ClN2S/c1-7-6-8(11)4-5-9(7)12-10(14)13(2)3/h4-6H,1-3H3,(H,12,14)",IBZZDPVVVSNQOY-UHFFFAOYSA-N,?,,175.0,108794
108800,28395-03-1,28395-03-1,CCCCNc1cc(cc(c1Oc1ccccc1)S(N)(=O)=O)C(O)=O,Bumetanide,Bumetanide,3-(butylamino)-4-phenoxy-5-sulfamoylbenzoic acid,35331,DTXSID5022699,CCCCNc1cc(cc(c1Oc1ccccc1)S(N)(=O)=O)C(O)=O,"InChI=1S/C17H20N2O5S/c1-2-3-9-19-14-10-12(17(20)21)11-15(25(18,22)23)16(14)24-13-7-5-4-6-8-13/h4-8,10-11,19H,2-3,9H2,1H3,(H,20,21)(H2,18,22,23)",MAEIEVLCKWDQJH-UHFFFAOYSA-N,?,,230.5,108800
108805,28631-35-8,28631-35-8,CC(C)CCCCCOC(=O)C(C)Oc1ccc(Cl)cc1Cl,DICHLORPROP-ISOOCTYL,Dichlorprop-isooctyl,"6-methylheptyl 2-(2,4-dichlorophenoxy)propanoate",35336,DTXSID7034678,CC(C)CCCCCOC(=O)C(C)Oc1ccc(Cl)cc1Cl,"InChI=1S/C17H24Cl2O3/c1-12(2)7-5-4-6-10-21-17(20)13(3)22-16-9-8-14(18)11-15(16)19/h8-9,11-13H,4-7,10H2,1-3H3",OAKNYWMOJIXXDI-UHFFFAOYSA-N,?,,-37.0,108805
108812,28860-95-9,28860-95-9,C[C@@](Cc1cc(O)c(O)cc1)(NN)C(O)=O,Carbidopa,Carbidopa,"(2S)-3-(3,4-dihydroxyphenyl)-2-hydrazinyl-2-methylpropanoic acid",35339,DTXSID4022735,CC(Cc1cc(O)c(O)cc1)(NN)C(O)=O,"InChI=1S/C10H14N2O4/c1-10(12-11,9(15)16)5-6-2-3-7(13)8(14)4-6/h2-4,12-14H,5,11H2,1H3,(H,15,16)",TZFNLOMSOLWIDK-UHFFFAOYSA-N,?,,208.0,108812
108817,29091-05-2,29091-05-2,CCN(CC)c1c(cc(c(N)c1[N+]([O-])=O)C(F)(F)F)[N+]([O-])=O,DINITRAMINE,Dinitramine,"N,N-diethyl-2,6-dinitro-4-(trifluoromethyl)benzene-1,3-diamine",35343,DTXSID9040265,CCN(CC)c1c(cc(c(N)c1[N+]([O-])=O)C(F)(F)F)[N+]([O-])=O,"InChI=1S/C11H13F3N4O4/c1-3-16(4-2)9-7(17(19)20)5-6(11(12,13)14)8(15)10(9)18(21)22/h5H,3-4,15H2,1-2H3",OFDYMSKSGFSLLM-UHFFFAOYSA-N,?,,98.0,108817
108821,29106-32-9,NOCAS_872002,OC(=O)CCCCCCCCCCCCC1CCC=C1,Chaulmoogric Acid,,,35347,DTXSID00872002,OC(=O)CCCCCCCCCCCCC1CCC=C1,"InChI=1S/C18H32O2/c19-18(20)16-10-8-6-4-2-1-3-5-7-9-13-17-14-11-12-15-17/h11,14,17H,1-10,12-13,15-16H2,(H,19,20)",XMVQWNRDPAAMJB-UHFFFAOYSA-N,?,,68.5,108821
108825,29136-19-4,70356-32-0,CCCCCCCCCCCCCCCCCCCc1ccccc1,"Benzene, nonadecyl-","Benzene, C14-26-alkyl derivs.",nonadecylbenzene,35351,DTXSID7028986,CCCCCCCCCCCCCCCCCCCc1ccccc1,"InChI=1S/C25H44/c1-2-3-4-5-6-7-8-9-10-11-12-13-14-15-16-17-19-22-25-23-20-18-21-24-25/h18,20-21,23-24H,2-17,19,22H2,1H3",SHWJJBRTHGGZBE-UHFFFAOYSA-N,?,,40.0,108825
108829,29218-27-7,29218-27-7,Cc1cc(ccc1)N1CC(CO)OC1=O,Toloxatone,,,35355,DTXSID40865478,Cc1cc(ccc1)N1CC(CO)OC1=O,"InChI=1S/C11H13NO3/c1-8-3-2-4-9(5-8)12-6-10(7-13)15-11(12)14/h2-5,10,13H,6-7H2,1H3",MXUNKHLAEDCYJL-UHFFFAOYSA-N,?,,76.0,108829
108836,29446-15-9,29446-15-9,Clc1cc2Oc3ccccc3Oc2cc1Cl,"2,3-DICHLORODIBENZO-P-DIOXIN","2,3-Dichlorodibenzo-4-dioxin","2,3-dichlorooxanthrene",35359,DTXSID50183650,Clc1cc2Oc3ccccc3Oc2cc1Cl,InChI=1S/C12H6Cl2O2/c13-7-5-11-12(6-8(7)14)16-10-4-2-1-3-9(10)15-11/h1-6H,YCIYTXRUZSDMRZ-UHFFFAOYSA-N,?,,163.0,108836
108841,29767-20-2,29767-20-2,COc1cc(cc(OC)c1O)[C@H]1[C@@H]2C(COC2=O)C(O[C@@H]2O[C@@H]3COC(O[C@H]3[C@H](O)[C@H]2O)c2ccc[s]2)c2cc3OCOc3cc21,TENIPOSIDE,Teniposide,"(8aR,9R)-9-(4-hydroxy-3,5-dimethoxyphenyl)-8-oxo-5,5a,6,8,8a,9-hexahydrofuro[3',4':6,7]naphtho[2,3-d][1,3]dioxol-5-yl 4,6-O-(thiophen-2-ylmethylidene)-beta-D-glucopyranoside",35363,DTXSID8023638,COc1cc(cc(OC)c1O)C1C2C(COC2=O)C(OC2OC3COC(OC3C(O)C2O)c2ccc[s]2)c2cc3OCOc3cc21,"InChI=1S/C32H32O13S/c1-37-19-6-13(7-20(38-2)25(19)33)23-14-8-17-18(42-12-41-17)9-15(14)28(16-10-39-30(36)24(16)23)44-32-27(35)26(34)29-21(43-32)11-40-31(45-29)22-4-3-5-46-22/h3-9,16,21,23-24,26-29,31-35H,10-12H2,1-2H3",NRUKOCRGYNPUPR-UHFFFAOYSA-N,?,,244.0,108841
108845,29949-19-7,29949-19-7,CC(=O)OC(OC(C)=O)c1cc(ccc1)[N+]([O-])=O,Acetic acid acetoxy-(3-nitro-phenyl)methyl ester,3-Nitrobenzylidene di(acetate),[acetyloxy-(3-nitrophenyl)methyl] acetate,35367,DTXSID00184051,CC(=O)OC(OC(C)=O)c1cc(ccc1)[N+]([O-])=O,"InChI=1S/C11H11NO6/c1-7(13)17-11(18-8(2)14)9-4-3-5-10(6-9)12(15)16/h3-6,11H,1-2H3",QJNXSPWUBMFCND-UHFFFAOYSA-N,?,,72.0,108845
108850,30279-49-3,NOCAS_865536,NS(=O)(=O)c1cc(Cl)c(cc1)N1C(=O)CC(c2ccccc2)C1=O,Suclofenide,,,35371,DTXSID60865536,NS(=O)(=O)c1cc(Cl)c(cc1)N1C(=O)CC(c2ccccc2)C1=O,"InChI=1S/C16H13ClN2O4S/c17-13-8-11(24(18,22)23)6-7-14(13)19-15(20)9-12(16(19)21)10-4-2-1-3-5-10/h1-8,12H,9H2,(H2,18,22,23)",JUIHCCIFJCSFON-UHFFFAOYSA-N,?,,206.0,108850
108855,30560-19-1,30560-19-1,COP(=O)(NC(C)=O)SC,ACEPHATE,Acephate,"O,S-dimethyl acetylphosphoramidothioate",35375,DTXSID8023846,COP(=O)(NC(C)=O)SC,"InChI=1S/C4H10NO3PS/c1-4(6)5-9(7,8-2)10-3/h1-3H3,(H,5,6,7)",YASYVMFAVPKPKE-UHFFFAOYSA-N,?,,88.0,108855
108860,30924-31-3,30924-31-3,CN1c2[n]c(N(C)CCO)[n](C)c2C(=O)N(C)C1=O,Cafaminol,Cafaminol,"8-(2-hydroxyethyl-methylamino)-1,3,7-trimethylpurine-2,6-dione",35379,DTXSID60184916,CN1c2[n]c(N(C)CCO)[n](C)c2C(=O)N(C)C1=O,"InChI=1S/C11H17N5O3/c1-13(5-6-17)10-12-8-7(14(10)2)9(18)16(4)11(19)15(8)3/h17H,5-6H2,1-4H3",ZGNRRVAPHPANFI-UHFFFAOYSA-N,?,,105.0,108860
108864,31036-80-3,31036-80-3,CC(Oc1c(Cl)cccc1Cl)C1NCCN=1,Lofexidine,Lofexidine,"2-[1-(2,6-dichlorophenoxy)ethyl]-4,5-dihydro-1H-imidazole",35383,DTXSID7023221,CC(Oc1c(Cl)cccc1Cl)C1NCCN=1,"InChI=1S/C11H12Cl2N2O/c1-7(11-14-5-6-15-11)16-10-8(12)3-2-4-9(10)13/h2-4,7H,5-6H2,1H3,(H,14,15)",KSMAGQUYOIHWFS-UHFFFAOYSA-N,?,,127.0,108864
108868,31431-39-7,31431-39-7,COC(=O)Nc1[nH]c2ccc(cc2[n]1)C(=O)c1ccccc1,MEBENDAZOLE,Mebendazole,methyl (5-benzoyl-1H-benzimidazol-2-yl)carbamate,35387,DTXSID4040682,COC(=O)Nc1[nH]c2ccc(cc2[n]1)C(=O)c1ccccc1,"InChI=1S/C16H13N3O3/c1-22-16(21)19-15-17-12-8-7-11(9-13(12)18-15)14(20)10-5-3-2-4-6-10/h2-9H,1H3,(H2,17,18,19,21)",OPXLLQIJSORQAM-UHFFFAOYSA-N,?,,288.5,108868
108873,31637-97-5,31637-97-5,CC(C)(Oc1ccc(Cl)cc1)C(=O)OCCOC(=O)c1c[n]ccc1,Etofibrate,Etofibrate,2-[2-(4-chlorophenoxy)-2-methylpropanoyl]oxyethyl pyridine-3-carboxylate,35391,DTXSID80185521,CC(C)(Oc1ccc(Cl)cc1)C(=O)OCCOC(=O)c1c[n]ccc1,"InChI=1S/C18H18ClNO5/c1-18(2,25-15-7-5-14(19)6-8-15)17(22)24-11-10-23-16(21)13-4-3-9-20-12-13/h3-9,12H,10-11H2,1-2H3",XXRVYAFBUDSLJX-UHFFFAOYSA-N,?,,100.0,108873
108878,31828-71-4,31828-71-4,CC(N)COc1c(C)cccc1C,"2-PROPANAMINE, 1-(2,6-DIMETHYLPHENOXY)-",Mexiletine,"1-(2,6-dimethylphenoxy)propan-2-amine",35395,DTXSID8048446,CC(N)COc1c(C)cccc1C,"InChI=1S/C11H17NO/c1-8-5-4-6-9(2)11(8)13-7-10(3)12/h4-6,10H,7,12H2,1-3H3",VLPIATFUUWWMKC-UHFFFAOYSA-N,?,,204.0,108878
108882,31883-98-4,31883-98-4,CC1CC(=O)CCC=1,3-Methyl-cyclohex-3-enone,3-Methylcyclohex-3-en-1-one,3-Methylcyclohex-3-en-1-one,35399,DTXSID50185735,CC1CC(=O)CCC=1,"InChI=1S/C7H10O/c1-6-3-2-4-7(8)5-6/h3H,2,4-5H2,1H3",MHBNXZDNKOXHCX-UHFFFAOYSA-N,?,,-21.0,108882
108886,32222-06-3,32222-06-3,CC(C)(O)CCC[C@@H](C)[C@H]1CC[C@H]2/C(/CCC[C@@]21C)=C/C=C1/C[C@@H](O)C[C@H](O)C/1=C,Calcitriol,Calcitriol,"(1S,3R,5Z,7E)-9,10-secocholesta-5,7,10-triene-1,3,25-triol",35403,DTXSID5022722,CC(C)(O)CCCC(C)C1CCC2C(CCCC21C)=CC=C1CC(O)CC(O)C1=C,"InChI=1S/C27H44O3/c1-18(8-6-14-26(3,4)30)23-12-13-24-20(9-7-15-27(23,24)5)10-11-21-16-22(28)17-25(29)19(21)2/h10-11,18,22-25,28-30H,2,6-9,12-17H2,1,3-5H3/b20-10+,21-11+",GMRQFYUYWCNGIN-CLVAPQHMSA-N,?,,115.0,108886
108895,32588-76-4,32588-76-4,O=C1c2c(c(Br)c(Br)c(Br)c2Br)C(=O)N1CCN1C(=O)c2c(c(Br)c(Br)c(Br)c2Br)C1=O,Saytex BT 93,"1,2-Bis(tetrabromophthalimido)ethane","2,2'-ethane-1,2-diylbis(4,5,6,7-tetrabromo-1H-isoindole-1,3(2H)-dione)",35408,DTXSID6024626,O=C1c2c(c(Br)c(Br)c(Br)c2Br)C(=O)N1CCN1C(=O)c2c(c(Br)c(Br)c(Br)c2Br)C1=O,InChI=1S/C18H4Br8N2O4/c19-7-3-4(8(20)12(24)11(7)23)16(30)27(15(3)29)1-2-28-17(31)5-6(18(28)32)10(22)14(26)13(25)9(5)21/h1-2H2,DYIZJUDNMOIZQO-UHFFFAOYSA-N,?,,445.0,108895
108901,32808-51-8,32808-51-8,OC(=O)CCC(=O)c1ccc(C2CCCCC2)c(Cl)c1,Bucloxic Acid,Bucloxic acid,4-(3-chloro-4-cyclohexylphenyl)-4-oxobutanoic acid,35412,DTXSID5022695,OC(=O)CCC(=O)c1ccc(C2CCCCC2)c(Cl)c1,"InChI=1S/C16H19ClO3/c17-14-10-12(15(18)8-9-16(19)20)6-7-13(14)11-4-2-1-3-5-11/h6-7,10-11H,1-5,8-9H2,(H,19,20)",IJTPQQVCKPZIMV-UHFFFAOYSA-N,?,,163.0,108901
108905,32838-55-4,NOCAS_871372,C(C1CCCCN1)c1ccccc1,2-Benzyl-piperidine,,,35416,DTXSID40871372,C(C1CCCCN1)c1ccccc1,"InChI=1S/C12H17N/c1-2-6-11(7-3-1)10-12-8-4-5-9-13-12/h1-3,6-7,12-13H,4-5,8-10H2",ITXCORRITGNIHP-UHFFFAOYSA-N,?,,32.0,108905
108909,32886-97-8,32886-97-8,CC(C)(C)C(=O)OCOC(=O)[C@@H]1N2[C@H](SC1(C)C)[C@H](N=CN1CCCCCC1)C2=O,Amdinocillin Pivoxil,Pivmecillinam,"[(2,2-dimethylpropanoyl)oxy]methyl (2S,5R,6R)-6-[(azepan-1-ylmethylidene)amino]-3,3-dimethyl-7-oxo-4-thia-1-azabicyclo[3.2.0]heptane-2-carboxylate",35419,DTXSID7048538,CC(C)(C)C(=O)OCOC(=O)C1N2C(SC1(C)C)C(N=CN1CCCCCC1)C2=O,"InChI=1S/C21H33N3O5S/c1-20(2,3)19(27)29-13-28-18(26)15-21(4,5)30-17-14(16(25)24(15)17)22-12-23-10-8-6-7-9-11-23/h12,14-15,17H,6-11,13H2,1-5H3/b22-12+",NPGNOVNWUSPMDP-WSDLNYQXSA-N,?,,119.0,108909
108913,33005-95-7,33005-95-7,CC(C(O)=O)c1ccc([s]1)C(=O)c1ccccc1,Tiaprofenic Acid,Tiaprofenic acid,2-(5-benzoylthiophen-2-yl)propanoic acid,35423,DTXSID5023665,CC(C(O)=O)c1ccc([s]1)C(=O)c1ccccc1,"InChI=1S/C14H12O3S/c1-9(14(16)17)11-7-8-12(18-11)13(15)10-5-3-2-4-6-10/h2-9H,1H3,(H,16,17)",GUHPRPJDBZHYCJ-UHFFFAOYSA-N,?,,96.0,108913
108917,33125-97-2,33125-97-2,CCOC(=O)c1c[n]c[n]1C(C)c1ccccc1,"1H-IMIDAZOLE-5-CARBOXYLIC ACID, 1-(1-PHENYLETHYL",Etomidate,ethyl 1-(1-phenylethyl)-1H-imidazole-5-carboxylate,35427,DTXSID5023033,CCOC(=O)c1c[n]c[n]1C(C)c1ccccc1,"InChI=1S/C14H16N2O2/c1-3-18-14(17)13-9-15-10-16(13)11(2)12-7-5-4-6-8-12/h4-11H,3H2,1-2H3",NPUKDXXFDDZOKR-UHFFFAOYSA-N,?,,67.0,108917
108921,33342-05-1,33342-05-1,COc1cc2c(cc1)C(C)(C)C(=O)N(CCc1ccc(cc1)S(=O)(=O)NC(=O)NC1CCCCC1)C2=O,Gliquidone,Gliquidone,"N-(cyclohexylcarbamoyl)-4-[2-(7-methoxy-4,4-dimethyl-1,3-dioxo-3,4-dihydroisoquinolin-2(1H)-yl)ethyl]benzenesulfonamide",35431,DTXSID4023096,COc1cc2c(cc1)C(C)(C)C(=O)N(CCc1ccc(cc1)S(=O)(=O)NC(=O)NC1CCCCC1)C2=O,"InChI=1S/C27H33N3O6S/c1-27(2)23-14-11-20(36-3)17-22(23)24(31)30(25(27)32)16-15-18-9-12-21(13-10-18)37(34,35)29-26(33)28-19-7-5-4-6-8-19/h9-14,17,19H,4-8,15-16H2,1-3H3,(H2,28,29,33)",LLJFMFZYVVLQKT-UHFFFAOYSA-N,?,,181.0,108921
108926,33629-47-9,33629-47-9,CCC(C)Nc1c(cc(cc1[N+]([O-])=O)C(C)(C)C)[N+]([O-])=O,BUTRALIN,Butralin,"N-(butan-2-yl)-4-tert-butyl-2,6-dinitroaniline",35435,DTXSID3032337,CCC(C)Nc1c(cc(cc1[N+]([O-])=O)C(C)(C)C)[N+]([O-])=O,"InChI=1S/C14H21N3O4/c1-6-9(2)15-13-11(16(18)19)7-10(14(3,4)5)8-12(13)17(20)21/h7-9,15H,6H2,1-5H3",SPNQRCTZKIBOAX-UHFFFAOYSA-N,?,,60.0,108926
108930,33719-74-3,33719-74-3,COc1cc(Cl)cc(Cl)c1,"3,5-DICHLOROANISOLE","3,5-Dichloroanisole","1,3-dichloro-5-methoxybenzene",35439,DTXSID80187404,COc1cc(Cl)cc(Cl)c1,"InChI=1S/C7H6Cl2O/c1-10-7-3-5(8)2-6(9)4-7/h2-4H,1H3",SSNXYMVLSOMJLU-UHFFFAOYSA-N,?,,41.0,108930
108936,34123-59-6,34123-59-6,CN(C)C(=O)Nc1ccc(cc1)C(C)C,ISOPROTURON,Isoproturon,"1,1-dimethyl-3-[4-(propan-2-yl)phenyl]urea",35443,DTXSID1042077,CN(C)C(=O)Nc1ccc(cc1)C(C)C,"InChI=1S/C12H18N2O/c1-9(2)10-5-7-11(8-6-10)13-12(15)14(3)4/h5-9H,1-4H3,(H,13,15)",PUIYMUZLKQOUOZ-UHFFFAOYSA-N,?,,158.0,108936
108943,34645-84-6,34645-84-6,OC(=O)Cc1ccccc1Oc1ccc(Cl)cc1Cl,FENCLOFENAC,Fenclofenac,"[2-(2,4-dichlorophenoxy)phenyl]acetic acid",35447,DTXSID6048830,OC(=O)Cc1ccccc1Oc1ccc(Cl)cc1Cl,"InChI=1S/C14H10Cl2O3/c15-10-5-6-13(11(16)8-10)19-12-4-2-1-3-9(12)7-14(17)18/h1-6,8H,7H2,(H,17,18)",IDKAXRLETRCXKS-UHFFFAOYSA-N,?,,112.0,108943
108948,34816-55-2,34816-55-2,C[C@]12C[C@H](OC)[C@H]3[C@@H](CCc4cc(O)ccc43)[C@@H]1CC[C@@]2(O)C#C,"19-NORPREGNA-1,3,5(10)-TRIEN-20-YNE-3,17-DIOL, 1",Moxestrol,"(11beta,17beta)-17-ethynyl-11-methoxyestra-1,3,5(10)-triene-3,17-diol",35451,DTXSID8022375,CC12CC(OC)C3C(CCc4cc(O)ccc43)C1CCC2(O)C#C,"InChI=1S/C21H26O3/c1-4-21(23)10-9-17-16-7-5-13-11-14(22)6-8-15(13)19(16)18(24-3)12-20(17,21)2/h1,6,8,11,16-19,22-23H,5,7,9-10,12H2,2-3H3",MTMZZIPTQITGCY-UHFFFAOYSA-N,?,,280.0,108948
108952,34919-98-7,NOCAS_865739,CNC(=O)COc1ccccc1OCC(O)CNC(C)(C)C,CETAMOLOL,,,35455,DTXSID20865739,CNC(=O)COc1ccccc1OCC(O)CNC(C)(C)C,"InChI=1S/C16H26N2O4/c1-16(2,3)18-9-12(19)10-21-13-7-5-6-8-14(13)22-11-15(20)17-4/h5-8,12,18-19H,9-11H2,1-4H3,(H,17,20)",UWCBNAVPISMFJZ-UHFFFAOYSA-N,?,,96.5,108952
108956,35367-38-5,35367-38-5,O=C(Nc1ccc(Cl)cc1)NC(=O)c1c(F)cccc1F,DIFLUBENZURON,Diflubenzuron,"N-[(4-chlorophenyl)carbamoyl]-2,6-difluorobenzamide",35459,DTXSID1024049,O=C(Nc1ccc(Cl)cc1)NC(=O)c1c(F)cccc1F,"InChI=1S/C14H9ClF2N2O2/c15-8-4-6-9(7-5-8)18-14(21)19-13(20)12-10(16)2-1-3-11(12)17/h1-7H,(H2,18,19,20,21)",QQQYTWIFVNKMRW-UHFFFAOYSA-N,?,,239.0,108956
108960,35554-44-0,35554-44-0,C=CCOC(C[n]1c[n]cc1)c1ccc(Cl)cc1Cl,IMAZALIL BASE,Imazalil,"1-[2-(2,4-dichlorophenyl)-2-(prop-2-en-1-yloxy)ethyl]-1H-imidazole",35463,DTXSID8024151,C=CCOC(C[n]1c[n]cc1)c1ccc(Cl)cc1Cl,"InChI=1S/C14H14Cl2N2O/c1-2-7-19-14(9-18-6-5-17-10-18)12-4-3-11(15)8-13(12)16/h2-6,8,10,14H,1,7,9H2",PZBPKYOVPCNPJY-UHFFFAOYSA-N,?,,52.7,108960
108965,35704-19-9,35704-19-9,CC(=O)Nc1ccc(cc1)C#N,"ACETAMIDE, N-(4-CYANOPHENYL)-",4-Cyanoacetanilide,N-(4-Cyanophenyl)acetamide,35467,DTXSID20189225,CC(=O)Nc1ccc(cc1)C#N,"InChI=1S/C9H8N2O/c1-7(12)11-9-4-2-8(6-10)3-5-9/h2-5H,1H3,(H,11,12)",UFKRTEWFEYWIHD-UHFFFAOYSA-N,?,,207.0,108965
108969,36088-22-9,67028-19-7,Clc1cccc2Oc3c(Oc12)c(Cl)c(Cl)c(Cl)c3Cl,PENTACHLORODIBENZO-P-DIOXIN,"1,2,3,4,6-Pentachlorodibenzo-p-dioxin","1,2,3,4,6-pentachlorooxanthrene",35471,DTXSID3074078,Clc1cccc2Oc3c(Oc12)c(Cl)c(Cl)c(Cl)c3Cl,InChI=1S/C12H3Cl5O2/c13-4-2-1-3-5-10(4)19-12-9(17)7(15)6(14)8(16)11(12)18-5/h1-3H,LNWDBNKKBLRAMH-UHFFFAOYSA-N,?,,220.0,108969
108973,36322-90-4,36322-90-4,CN1C(=C(O)c2ccccc2S1(=O)=O)C(=O)Nc1cccc[n]1,PIROXICAM,Piroxicam,"4-hydroxy-2-methyl-N-(pyridin-2-yl)-2H-1,2-benzothiazine-3-carboxamide 1,1-dioxide",35475,DTXSID5021170,CN1C(=C(O)c2ccccc2S1(=O)=O)C(=O)Nc1cccc[n]1,"InChI=1S/C15H13N3O4S/c1-18-13(15(20)17-12-8-4-5-9-16-12)14(19)10-6-2-3-7-11(10)23(18,21)22/h2-9,19H,1H3,(H,16,17,20)",QYSPLQLAKJAUJT-UHFFFAOYSA-N,?,,199.0,108973
108980,36566-80-0,NOCAS_871381,CCC#CC(C)C,2-Methyl-3-hexyne,,,35479,DTXSID30871381,CCC#CC(C)C,"InChI=1S/C7H12/c1-4-5-6-7(2)3/h7H,4H2,1-3H3",POBOUPFSQKXZFZ-UHFFFAOYSA-N,?,,-116.7,108980
108984,36765-01-2,NOCAS_871382,Nc1c(Cl)cc(Cl)cc1C(N)=O,"BENZAMIDE, 2-AMINO-3,5-DICHLORO-",,,35483,DTXSID90871382,Nc1c(Cl)cc(Cl)cc1C(N)=O,"InChI=1S/C7H6Cl2N2O/c8-3-1-4(7(11)12)6(10)5(9)2-3/h1-2H,10H2,(H2,11,12)",PRKRQUUATBDWTL-UHFFFAOYSA-N,?,,162.5,108984
108988,37106-97-1,37106-97-1,OC(=O)c1ccc(cc1)NC(=O)[C@H](Cc1ccc(O)cc1)NC(=O)c1ccccc1,Bentiromide,Bentiromide,4-[(N-benzoyl-L-tyrosyl)amino]benzoic acid,35487,DTXSID2048377,OC(=O)c1ccc(cc1)NC(=O)C(Cc1ccc(O)cc1)NC(=O)c1ccccc1,"InChI=1S/C23H20N2O5/c26-19-12-6-15(7-13-19)14-20(25-21(27)16-4-2-1-3-5-16)22(28)24-18-10-8-17(9-11-18)23(29)30/h1-13,20,26H,14H2,(H,24,28)(H,25,27)(H,29,30)",SPPTWHFVYKCNNK-UHFFFAOYSA-N,?,,241.0,108988
108992,37517-30-9,37517-30-9,CC(=O)c1cc(ccc1OCC(O)CNC(C)C)NC(=O)CCC,ACEBUTOLOL,Acebutolol,N-{3-acetyl-4-[2-hydroxy-3-(propan-2-ylamino)propoxy]phenyl}butanamide,35491,DTXSID2048539,CC(=O)c1cc(ccc1OCC(O)CNC(C)C)NC(=O)CCC,"InChI=1S/C18H28N2O4/c1-5-6-18(23)20-14-7-8-17(16(9-14)13(4)21)24-11-15(22)10-19-12(2)3/h7-9,12,15,19,22H,5-6,10-11H2,1-4H3,(H,20,23)",GOEMGAFJFRBGGG-UHFFFAOYSA-N,?,,121.0,108992
108996,37688-96-3,37688-96-3,BrCCCCCCCCCCCCCCBr,"Tetradecane, 1,14-dibromo-","Tetradecane, 1,14-dibromo-","1,14-Dibromotetradecane",35495,DTXSID3068049,BrCCCCCCCCCCCCCCBr,InChI=1S/C14H28Br2/c15-13-11-9-7-5-3-1-2-4-6-8-10-12-14-16/h1-14H2,SDENLXLNLFKRAR-UHFFFAOYSA-N,?,,50.4,108996
109001,37893-02-0,37893-02-0,FC(F)(F)/N=C1\C(=N\C(F)(F)F)\S/C(=N\c2ccccc2)/N\1c1ccccc1,Flubenzimine,Flubenzimine,"N-{(2Z,4E,5Z)-3-phenyl-4,5-bis[(trifluoromethyl)imino]-1,3-thiazolidin-2-ylidene}aniline",35500,DTXSID4058079,FC(F)(F)N=C1C(=NC(F)(F)F)SC(=Nc2ccccc2)N1c1ccccc1,"InChI=1S/C17H10F6N4S/c18-16(19,20)25-13-14(26-17(21,22)23)28-15(24-11-7-3-1-4-8-11)27(13)12-9-5-2-6-10-12/h1-10H/b24-15-,25-13+,26-14-",IZFZCMFMJKDHJZ-BANPTERESA-N,?,,118.0,109001
109005,38183-12-9,NOCAS_872017,O=C1OC2(OC=C(c3ccccc3)C2=O)c2ccccc12,Fluorescamine,,,35504,DTXSID50872017,O=C1OC2(OC=C(c3ccccc3)C2=O)c2ccccc12,InChI=1S/C17H10O4/c18-15-13(11-6-2-1-3-7-11)10-20-17(15)14-9-5-4-8-12(14)16(19)21-17/h1-10H,ZFKJVJIDPQDDFY-UHFFFAOYSA-N,?,,154.5,109005
109009,38304-91-5,38304-91-5,Nc1[n]c(cc(N)[n+]1[O-])N1CCCCC1,MINOXIDIL,Minoxidil,"6-(piperidin-1-yl)pyrimidine-2,4-diamine 3-oxide",35508,DTXSID9040685,Nc1[n]c(cc(N)[n+]1[O-])N1CCCCC1,"InChI=1S/C9H15N5O/c10-7-6-8(12-9(11)14(7)15)13-4-2-1-3-5-13/h6H,1-5,10H2,(H2,11,12)",ZFMITUMMTDLWHR-UHFFFAOYSA-N,?,,248.0,109009
109014,38821-53-3,38821-53-3,CC1CS[C@@H]2[C@H](NC(=O)[C@H](N)C3CC=CCC=3)C(=O)N2C=1C(O)=O,Cephradine,Cephradine,"(6R,7R)-7-{[(2R)-2-amino-2-(cyclohexa-1,4-dien-1-yl)acetyl]amino}-3-methyl-8-oxo-5-thia-1-azabicyclo[4.2.0]oct-2-ene-2-carboxylic acid",35512,DTXSID4022785,CC1CSC2C(NC(=O)C(N)C3CC=CCC=3)C(=O)N2C=1C(O)=O,"InChI=1S/C16H19N3O4S/c1-8-7-24-15-11(14(21)19(15)12(8)16(22)23)18-13(20)10(17)9-5-3-2-4-6-9/h2-3,6,10-11,15H,4-5,7,17H2,1H3,(H,18,20)(H,22,23)",RDLPVSKMFDYCOR-UHFFFAOYSA-N,?,,140.0,109014
109018,39001-02-0,39001-02-0,Clc1c2oc3c(c2c(Cl)c(Cl)c1Cl)c(Cl)c(Cl)c(Cl)c3Cl,OCTACHLORODIBENZOFURAN,Octachlorodibenzofuran,"1,2,3,4,6,7,8,9-octachlorodibenzo[b,d]furan",35516,DTXSID3052062,Clc1c2oc3c(c2c(Cl)c(Cl)c1Cl)c(Cl)c(Cl)c(Cl)c3Cl,InChI=1S/C12Cl8O/c13-3-1-2-4(14)6(16)8(18)10(20)12(2)21-11(1)9(19)7(17)5(3)15,RHIROFAGUQOFLU-UHFFFAOYSA-N,?,,258.0,109018
109023,39196-18-4,39196-18-4,CC(C)(C)C(CSC)=NOC(=O)NC,THIOFANOX,Thiofanox,"6-tert-butyl-4-oxa-8-thia-2,5-diazanon-5-en-3-one",35520,DTXSID4042468,CC(C)(C)C(CSC)=NOC(=O)NC,"InChI=1S/C9H18N2O2S/c1-9(2,3)7(6-14-5)11-13-8(12)10-4/h6H2,1-5H3,(H,10,12)/b11-7+",FZSVSABTBYGOQH-YRNVUSSQSA-N,?,,57.0,109023
109027,39227-58-2,39227-58-2,Clc1cc(Cl)c(Cl)c2Oc3ccccc3Oc12,"1,2,4-TRICHLORODIBENZO-P-DIOXIN","1,2,4-Trichlorodibenzo-1,4-dioxin","1,2,4-trichlorooxanthrene",35524,DTXSID50192489,Clc1cc(Cl)c(Cl)c2Oc3ccccc3Oc12,InChI=1S/C12H5Cl3O2/c13-6-5-7(14)11-12(10(6)15)17-9-4-2-1-3-8(9)16-11/h1-5H,HRVUKLBFRPWXPJ-UHFFFAOYSA-N,?,,128.0,109027