ChemID,source_casrn,CAS,SMILES,NAME,preferred_name,iupac,MPID,dsstox_substance_id,Canonical_QSARr,InChI_Code_QSARr,InChI Key_QSARr,Salt_Solvent,BP,ID
101690,355-04-4,355-04-4,FC(C(F)(F)C(F)(F)C(F)(F)F)(C(F)(F)F)C(F)(F)F,Undecafluoro-4-trifluoromethyl-pentane,Perfluoroisohexane,"1,1,1,2,2,3,3,4,5,5,5-Undecafluoro-4-(trifluoromethyl)pentane",20740,DTXSID40188992,FC(C(F)(F)C(F)(F)C(F)(F)F)(C(F)(F)F)C(F)(F)F,"InChI=1S/C6F14/c7-1(4(12,13)14,5(15,16)17)2(8,9)3(10,11)6(18,19)20",ROVMKEZVKFJNBD-UHFFFAOYSA-N,?,57.6,101690
101694,355-43-1,355-43-1,FC(F)(F)C(F)(F)C(F)(F)C(F)(F)C(F)(F)C(F)(F)I,"Hexane, tridecafluoro-6-iodo-",Perfluorohexyl iodide,"1,1,1,2,2,3,3,4,4,5,5,6,6-tridecafluoro-6-iodohexane",20744,DTXSID7047566,FC(F)(F)C(F)(F)C(F)(F)C(F)(F)C(F)(F)C(F)(F)I,"InChI=1S/C6F13I/c7-1(8,3(11,12)5(15,16)17)2(9,10)4(13,14)6(18,19)20",BULLJMKUVKYZDJ-UHFFFAOYSA-N,?,118.0,101694
101698,355-75-9,355-75-9,FC1(F)C(F)=C(F)C(F)(F)C(F)(F)C1(F)F,Decafluorocyclohexene,"Cyclohexene, 1,2,3,3,4,4,5,5,6,6-decafluoro-","1,2,3,3,4,4,5,5,6,6-decafluorocyclohexene",20748,DTXSID8074659,FC1(F)C(F)=C(F)C(F)(F)C(F)(F)C1(F)F,"InChI=1S/C6F10/c7-1-2(8)4(11,12)6(15,16)5(13,14)3(1,9)10",ZFFLXJVVPHACEG-UHFFFAOYSA-N,?,52.0,101698
101702,356-24-1,356-24-1,COC(=O)C(F)(F)C(F)(F)C(F)(F)F,"Butanoic acid, heptafluoro-, methyl ester",Methyl heptafluorobutyrate,"methyl 2,2,3,3,4,4,4-heptafluorobutanoate",20752,DTXSID4059881,COC(=O)C(F)(F)C(F)(F)C(F)(F)F,"InChI=1S/C5H3F7O2/c1-14-2(13)3(6,7)4(8,9)5(10,11)12/h1H3",MRPUVAKBXDBGJQ-UHFFFAOYSA-N,?,80.0,101702
101707,358-43-0,358-43-0,CC[Si](F)(CC)CC,TRIETHYLFLUOROSILANE,Triethylfluorosilane,triethyl-fluorosilane,20756,DTXSID40189328,CC[Si](F)(CC)CC,"InChI=1S/C6H15FSi/c1-4-8(7,5-2)6-3/h4-6H2,1-3H3",QVMRVWAOMIXFFW-UHFFFAOYSA-N,?,110.0,101707
101711,359-11-5,359-11-5,FC=C(F)F,TRIFLUOROETHENE,"Ethene, trifluoro-","1,1,2-trifluoroethene",20760,DTXSID4059887,FC=C(F)F,InChI=1S/C2HF3/c3-1-2(4)5/h1H,MIZLGWKEZAPEFJ-UHFFFAOYSA-N,?,-51.0,101711
101715,359-35-3,9002-84-0,FC(F)C(F)F,"1,1,2,2-Tetrafluoroethane",Poly(tetrafluoroethylene),"1,1,2,2-tetrafluoroethane",20764,DTXSID7047724,FC(F)C(F)F,InChI=1S/C2H2F4/c3-1(4)2(5)6/h1-2H,WXGNWUVNYMJENI-UHFFFAOYSA-N,?,-19.9,101715
101719,363-72-4,363-72-4,Fc1c(F)c(F)cc(F)c1F,PENTAFLUOROBENZENE,Pentafluorobenzene,"1,2,3,4,5-Pentafluorobenzene",20768,DTXSID8059893,Fc1c(F)c(F)cc(F)c1F,InChI=1S/C6HF5/c7-2-1-3(8)5(10)6(11)4(2)9/h1H,WACNXHCZHTVBJM-UHFFFAOYSA-N,?,85.7,101719
101723,367-12-4,367-12-4,Oc1ccccc1F,O-FLUOROPHENOL,2-Fluorophenol,2-fluorophenol,20772,DTXSID0047745,Oc1ccccc1F,"InChI=1S/C6H5FO/c7-5-3-1-2-4-6(5)8/h1-4,8H",HFHFGHLXUCOHLN-UHFFFAOYSA-N,?,151.5,101723
101727,367-57-7,367-57-7,CC(=O)CC(=O)C(F)(F)F,"2,4-Pentanedione, 1,1,1-trifluoro-","2,4-Pentanedione, 1,1,1-trifluoro-","1,1,1-Trifluoropentane-2,4-dione",20776,DTXSID3059896,CC(=O)CC(=O)C(F)(F)F,"InChI=1S/C5H5F3O2/c1-3(9)2-4(10)5(6,7)8/h2H2,1H3",SHXHPUAKLCCLDV-UHFFFAOYSA-N,?,106.0,101727
101731,368-77-4,368-77-4,N#Cc1cc(ccc1)C(F)(F)F,"A,A,A-TRIFLUOR-M-TOLUNITRIL","alpha,alpha,alpha-Trifluoro-m-tolunitrile",3-(trifluoromethyl)benzonitrile,20780,DTXSID4022026,N#Cc1cc(ccc1)C(F)(F)F,"InChI=1S/C8H4F3N/c9-8(10,11)7-3-1-2-6(4-7)5-12/h1-4H",OGOBINRVCUWLGN-UHFFFAOYSA-N,?,189.0,101731
101735,371-62-0,371-62-0,OCCF,2-FLUOROETHANOL,2-Fluoroethanol,2-Fluoroethanol,20784,DTXSID0059902,OCCF,"InChI=1S/C2H5FO/c3-1-2-4/h4H,1-2H2",GGDYAKVUZMZKRV-UHFFFAOYSA-N,?,103.5,101735
101739,372-31-6,372-31-6,CCOC(=O)CC(=O)C(F)(F)F,"Butanoic acid, 4,4,4-trifluoro-3-oxo-, ethyl est","Ethyl 4,4,4-trifluoroacetoacetate","ethyl 4,4,4-trifluoro-3-oxobutanoate",20788,DTXSID5059905,CCOC(=O)CC(=O)C(F)(F)F,"InChI=1S/C6H7F3O3/c1-2-12-5(11)3-4(10)6(7,8)9/h2-3H2,1H3",OCJKUQIPRNZDTK-UHFFFAOYSA-N,?,133.0,101739
101743,372-48-5,372-48-5,Fc1cccc[n]1,2-FLUOROPYRIDINE,"Pyridine, 2-fluoro-",2-Fluoropyridine,20792,DTXSID70190689,Fc1cccc[n]1,InChI=1S/C5H4FN/c6-5-3-1-2-4-7-5/h1-4H,MTAODLNXWYIKSO-UHFFFAOYSA-N,?,127.0,101743
101747,373-52-4,373-52-4,FCBr,"METHANE, BROMOFLUORO-",Bromofluoromethane,bromo-fluoromethane,20796,DTXSID3074319,FCBr,InChI=1S/CH2BrF/c2-1-3/h1H2,LHMHCLYDBQOYTO-UHFFFAOYSA-N,?,19.0,101747
101751,374-07-2,374-07-2,FC(F)(F)C(F)(Cl)Cl,"1,1-DICHLORO-1,2,2,2-TETRAFLUOROETHANE","Ethane, 1,1-dichloro-1,2,2,2-tetrafluoro-","1,1-dichloro-1,2,2,2-tetrafluoroethane",20800,DTXSID9027150,FC(F)(F)C(F)(Cl)Cl,"InChI=1S/C2Cl2F4/c3-1(4,5)2(6,7)8",BAMUEXIPKSRTBS-UHFFFAOYSA-N,?,4.0,101751
101756,375-01-9,375-01-9,OCC(F)(F)C(F)(F)C(F)(F)F,"2,2,3,3,4,4,-HEPTAFLUOROBUTANOL","1-Butanol, 2,2,3,3,4,4,4-heptafluoro-","2,2,3,3,4,4,4-Heptafluorobutan-1-ol",20804,DTXSID4059914,OCC(F)(F)C(F)(F)C(F)(F)F,"InChI=1S/C4H3F7O/c5-2(6,1-12)3(7,8)4(9,10)11/h12H,1H2",WXJFKAZDSQLPBX-UHFFFAOYSA-N,?,95.0,101756
101760,375-50-8,375-50-8,FC(F)(I)C(F)(F)C(F)(F)C(F)(F)I,"1,4-Diiodo octafluorobutane","1,1,2,2,3,3,4,4-Octafluoro-1,4-diiodobutane","1,1,2,2,3,3,4,4-Octafluoro-1,4-diiodobutane",20808,DTXSID30190948,FC(F)(I)C(F)(F)C(F)(F)C(F)(F)I,"InChI=1S/C4F8I2/c5-1(6,3(9,10)13)2(7,8)4(11,12)14",JILAKKYYZPDQBE-UHFFFAOYSA-N,?,150.0,101760
101766,375-96-2,375-96-2,FC(F)(F)C(F)(F)C(F)(F)C(F)(F)C(F)(F)C(F)(F)C(F)(F)C(F)(F)C(F)(F)F,Perfluorononane,Perfluorononane,C9F20,20812,DTXSID60334479,FC(F)(F)C(F)(F)C(F)(F)C(F)(F)C(F)(F)C(F)(F)C(F)(F)C(F)(F)C(F)(F)F,"InChI=1S/C9F20/c10-1(11,2(12,13)4(16,17)6(20,21)8(24,25)26)3(14,15)5(18,19)7(22,23)9(27,28)29",UVWPNDVAQBNQBG-UHFFFAOYSA-N,?,123.0,101766
101770,381-61-3,NOCAS_870522,C=CC(=C)F,"1,3-BUTADIENE, 2-FLUORO-",,,20816,DTXSID40870522,C=CC(=C)F,"InChI=1S/C4H5F/c1-3-4(2)5/h3H,1-2H2",BQHQZFUAEAVJRE-UHFFFAOYSA-N,?,12.0,101770
101774,382-31-0,NOCAS_870523,OCC(F)(F)C(F)C(F)(F)F,"2,2,3,4,4,4-Hexafluoro-1-butanol",,,20820,DTXSID00870523,OCC(F)(F)C(F)C(F)(F)F,"InChI=1S/C4H4F6O/c5-2(4(8,9)10)3(6,7)1-11/h2,11H,1H2",LVFXLZRISXUAIL-UHFFFAOYSA-N,?,117.0,101774
101778,389-40-2,389-40-2,COc1c(F)c(F)c(F)c(F)c1F,"Benzene, pentafluoromethoxy-",Pentafluoromethoxybenzene,"1,2,3,4,5-pentafluoro-6-methoxybenzene",20824,DTXSID2059938,COc1c(F)c(F)c(F)c(F)c1F,InChI=1S/C7H3F5O/c1-13-7-5(11)3(9)2(8)4(10)6(7)12/h1H3,ZRQUIRABLIQJRI-UHFFFAOYSA-N,?,138.5,101778
101782,393-52-2,393-52-2,O=C(Cl)c1ccccc1F,"Benzoyl chloride, 2-fluoro-",2-Fluorobenzoyl chloride,2-fluorobenzoyl chloride,20828,DTXSID3025330,O=C(Cl)c1ccccc1F,InChI=1S/C7H4ClFO/c8-7(10)5-3-1-2-4-6(5)9/h1-4H,RAAGZOYMEQDCTD-UHFFFAOYSA-N,?,206.0,101782
101786,401-78-5,401-78-5,FC(F)(F)c1cccc(Br)c1,"Benzene, 1-bromo-3-(trifluoromethyl)-",3-Bromobenzotrifluoride,1-Bromo-3-(trifluoromethyl)benzene,20832,DTXSID1059947,FC(F)(F)c1cccc(Br)c1,"InChI=1S/C7H4BrF3/c8-6-3-1-2-5(4-6)7(9,10)11/h1-4H",NNMBNYHMJRJUBC-UHFFFAOYSA-N,?,151.5,101786
101790,402-44-8,402-44-8,Fc1ccc(cc1)C(F)(F)F,"Benzene, 1-fluoro-4-(trifluoromethyl)-",4-Fluorobenzotrifluoride,1-Fluoro-4-(trifluoromethyl)benzene,20836,DTXSID5059951,Fc1ccc(cc1)C(F)(F)F,"InChI=1S/C7H4F4/c8-6-3-1-5(2-4-6)7(9,10)11/h1-4H",UNNNAIWPDLRVRN-UHFFFAOYSA-N,?,103.5,101790
101794,404-72-8,404-72-8,Fc1cc(ccc1)N=C=S,"Benzene, 1-fluoro-3-isothiocyanato-",3-Fluorophenyl isothiocyanate,1-fluoro-3-isothiocyanatobenzene,20840,DTXSID5059955,Fc1cc(ccc1)N=C=S,InChI=1S/C7H4FNS/c8-6-2-1-3-7(4-6)9-5-10/h1-4H,HDBACITVPQEAGG-UHFFFAOYSA-N,?,227.0,101794
101798,407-25-0,NOCAS_861920,O=C(OC(=O)C(F)(F)F)C(F)(F)F,TRIFLUOROACETIC ANHYDRIDE,,,20844,DTXSID90861920,O=C(OC(=O)C(F)(F)F)C(F)(F)F,"InChI=1S/C4F6O3/c5-3(6,7)1(11)13-2(12)4(8,9)10",QAEDZJGFFMLHHQ-UHFFFAOYSA-N,?,39.5,101798
101802,420-24-6,420-24-6,C[As](F)F,Difluoromethylarsine,"Arsine, difluoromethyl",difluoro-methylarsane,20848,DTXSID10194808,C[As](F)F,InChI=1S/CH3AsF2/c1-2(3)4/h1H3,ZXGHMKKZOQXXKB-UHFFFAOYSA-N,?,76.5,101802
101806,420-48-4,420-48-4,FC(Cl)(Cl)I,Dichlorofluoroiodomethane,PUBCHEM_23001916,CCl2FI,20852,DTXSID00629513,FC(Cl)(Cl)I,"InChI=1S/CCl2FI/c2-1(3,4)5",GOKDNAMGHVQFQQ-UHFFFAOYSA-N,?,90.0,101806
101810,421-01-2,421-01-2,FC(F)(Cl)CBr,"2-Bromo-1-chloro-1,1-difluoroethane","2-Bromo-1-chloro-1,1-difluoroethane","2-bromo-1-chloro-1,1-difluoroethane",20856,DTXSID6074255,FC(F)(Cl)CBr,"InChI=1S/C2H2BrClF2/c3-1-2(4,5)6/h1H2",KORUNPLQGRLDSJ-UHFFFAOYSA-N,?,68.4,101810
101814,421-83-0,421-83-0,O=S(=O)(Cl)C(F)(F)F,Trifluoromethanesulfonyl chloride,Trifluoromethanesulphonyl chloride,Trifluoromethanesulfonyl chloride,20860,DTXSID50194943,O=S(=O)(Cl)C(F)(F)F,"InChI=1S/CClF3O2S/c2-8(6,7)1(3,4)5",GRGCWBWNLSTIEN-UHFFFAOYSA-N,?,30.5,101814
101818,422-64-0,422-64-0,OC(=O)C(F)(F)C(F)(F)F,"Propanoic acid, pentafluoro-",Pentafluoropropionic acid,"2,2,3,3,3-pentafluoropropanoic acid",20864,DTXSID8059970,OC(=O)C(F)(F)C(F)(F)F,"InChI=1S/C3HF5O2/c4-2(5,1(9)10)3(6,7)8/h(H,9,10)",LRMSQVBRUNSOJL-UHFFFAOYSA-N,?,96.5,101818
101823,424-20-4,424-20-4,FC(F)(F)C(F)(F)C(F)(F)C(F)(F)C(F)(F)C(F)(F)OC(F)(F)C(F)(F)C(F)(F)C(F)(F)C(F)(F)C(F)(F)F,Perfluorohexyl ether,"1,1,1,2,2,3,3,4,4,5,5,6,6-tridecafluoro-6-[(tridecafluorohexyl)oxy]hexane",C12F26O,20868,DTXSID10291866,FC(F)(F)C(F)(F)C(F)(F)C(F)(F)C(F)(F)C(F)(F)OC(F)(F)C(F)(F)C(F)(F)C(F)(F)C(F)(F)C(F)(F)F,"InChI=1S/C12F26O/c13-1(14,5(21,22)9(29,30)31)3(17,18)7(25,26)11(35,36)39-12(37,38)8(27,28)4(19,20)2(15,16)6(23,24)10(32,33)34",SZSAPIBCGOJGHD-UHFFFAOYSA-N,?,181.0,101823
101828,430-57-9,NOCAS_861926,FC(Cl)CCl,"ETHANE, 1,2-DICHLORO-1-FLUORO-",,,20872,DTXSID50861926,FC(Cl)CCl,"InChI=1S/C2H3Cl2F/c3-1-2(4)5/h2H,1H2",NDKGUMMLYBINOC-UHFFFAOYSA-N,?,73.7,101828
101832,431-03-8,431-03-8,CC(=O)C(C)=O,"2,3-BUTANEDIONE","2,3-Butanedione","butane-2,3-dione",20876,DTXSID6021583,CC(=O)C(C)=O,InChI=1S/C4H6O2/c1-3(5)4(2)6/h1-2H3,QSJXEFYPDANLFS-UHFFFAOYSA-N,?,88.0,101832
101836,431-47-0,431-47-0,COC(=O)C(F)(F)F,METHYLTRIFLUOROACETATE,"Acetic acid, trifluoro-, methyl ester","methyl 2,2,2-trifluoroacetate",20880,DTXSID2059988,COC(=O)C(F)(F)F,"InChI=1S/C3H3F3O2/c1-8-2(7)3(4,5)6/h1H3",VMVNZNXAVJHNDJ-UHFFFAOYSA-N,?,43.25,101836
101841,431-89-0,431-89-0,FC(C(F)(F)F)C(F)(F)F,HFC-227ea (heptafluoropropane),"1,1,1,2,3,3,3-heptafluoropropane","1,1,1,2,3,3,3-heptafluoropropane",20884,DTXSID4042048,FC(C(F)(F)F)C(F)(F)F,"InChI=1S/C3HF7/c4-1(2(5,6)7)3(8,9)10/h1H",YFMFNYKEUDLDTL-UHFFFAOYSA-N,?,-17.3,101841
101845,434-64-0,434-64-0,Fc1c(F)c(F)c(c(F)c1F)C(F)(F)F,OCTAFLUOROTOLUENE,Octafluorotoluene,"1,2,3,4,5-pentafluoro-6-(trifluoromethyl)benzene",20888,DTXSID1059993,Fc1c(F)c(F)c(c(F)c1F)C(F)(F)F,"InChI=1S/C7F8/c8-2-1(7(13,14)15)3(9)5(11)6(12)4(2)10",USPWUOFNOTUBAD-UHFFFAOYSA-N,?,104.5,101845
101849,444-30-4,444-30-4,Oc1ccccc1C(F)(F)F,O-TRIFLUOROMETHYLPHENOL,2-(Trifluoromethyl)phenol,2-(Trifluoromethyl)phenol,20892,DTXSID0074849,Oc1ccccc1C(F)(F)F,"InChI=1S/C7H5F3O/c8-7(9,10)5-3-1-2-4-6(5)11/h1-4,11H",ZOQOPXVJANRGJZ-UHFFFAOYSA-N,?,147.5,101849
101853,447-53-0,447-53-0,C1CC=Cc2ccccc21,"1,2-DIHYDRONAPHTHALENE","1,2-Dihydronaphthalene",C10H10,20896,DTXSID30858713,C1CC=Cc2ccccc21,"InChI=1S/C10H10/c1-2-6-10-8-4-3-7-9(10)5-1/h1-3,5-7H,4,8H2",KEIFWROAQVVDBN-UHFFFAOYSA-N,?,206.5,101853
101857,451-80-9,451-80-9,CCOc1ccccc1F,"BENZENE, 1-ETHOXY-2-FLUORO-",o-Fluorophenatole,1-ethoxy-2-fluorobenzene,20900,DTXSID7075345,CCOc1ccccc1F,"InChI=1S/C8H9FO/c1-2-10-8-6-4-3-5-7(8)9/h3-6H,2H2,1H3",SQSJADMOVKSAQY-UHFFFAOYSA-N,?,171.4,101857
101861,454-31-9,454-31-9,CCOC(=O)C(F)F,"ACETIC ACID, DIFLUORO-, ETHYL ESTER","Acetic acid, difluoro-, ethyl ester","ethyl 2,2-difluoroacetate",20904,DTXSID0060010,CCOC(=O)C(F)F,"InChI=1S/C4H6F2O2/c1-2-8-4(7)3(5)6/h3H,2H2,1H3",GZKHDVAKKLTJPO-UHFFFAOYSA-N,?,100.0,101861
101865,456-48-4,456-48-4,O=Cc1cccc(F)c1,"Benzaldehyde, 3-fluoro-","Benzaldehyde, 3-fluoro-",3-Fluorobenzaldehyde,20908,DTXSID9060027,O=Cc1cccc(F)c1,InChI=1S/C7H5FO/c8-7-3-1-2-6(4-7)5-9/h1-5H,PIKNVEVCWAAOMJ-UHFFFAOYSA-N,?,173.0,101865
101869,458-88-8,458-88-8,CCC[C@H]1CCCCN1,2-PROPYLPIPERIDINE,d-Coniine,(2S)-2-propylpiperidine,20912,DTXSID8041795,CCCC1CCCCN1,"InChI=1S/C8H17N/c1-2-5-8-6-3-4-7-9-8/h8-9H,2-7H2,1H3",NDNUANOUGZGEPO-UHFFFAOYSA-N,?,166.5,101869
101873,459-60-9,459-60-9,COc1ccc(F)cc1,P-FLUOROANISOLE,p-Fluoroanisole,1-Fluoro-4-methoxybenzene,20916,DTXSID3060033,COc1ccc(F)cc1,"InChI=1S/C7H7FO/c1-9-7-4-2-6(8)3-5-7/h2-5H,1H3",VIPWUFMFHBIKQI-UHFFFAOYSA-N,?,157.0,101873
101877,460-00-4,460-00-4,Fc1ccc(Br)cc1,P-BROMOFLUOROBENZENE,1-Bromo-4-fluorobenzene,1-bromo-4-fluorobenzene,20920,DTXSID4027153,Fc1ccc(Br)cc1,InChI=1S/C6H4BrF/c7-5-1-3-6(8)4-2-5/h1-4H,AITNMTXHTIIIBB-UHFFFAOYSA-N,?,151.5,101877
101881,460-35-5,460-35-5,FC(F)(F)CCCl,"Propane, 3-chloro-1,1,1-trifluoro-","3-chloro-1,1,1-trifluoropropane","3-chloro-1,1,1-trifluoropropane",20924,DTXSID5042033,FC(F)(F)CCCl,"InChI=1S/C3H4ClF3/c4-2-1-3(5,6)7/h1-2H2",ZPIFKCVYZBVZIV-UHFFFAOYSA-N,?,45.1,101881
101885,461-57-4,461-57-4,COCC(F)F,"Ethane, 1,1-difluoro-2-methoxy-",PUBCHEM_17962868,C3H6F2O,20928,DTXSID30591779,COCC(F)F,"InChI=1S/C3H6F2O/c1-6-2-3(4)5/h3H,2H2,1H3",CRGZRXUKXVTRNO-UHFFFAOYSA-N,?,48.5,101885
101889,462-38-4,NOCAS_870542,FCCCCl,1-chloro-3-fluoropropane,,,20932,DTXSID40870542,FCCCCl,InChI=1S/C3H6ClF/c4-2-1-3-5/h1-3H2,PFDZQZAOZNELDX-UHFFFAOYSA-N,?,80.0,101889
101893,462-73-7,462-73-7,FCCCCCl,1-Chloro-4-fluorobutane,"Butane, 1-chloro-4-fluoro-",1-chloro-4-fluorobutane,20936,DTXSID30196768,FCCCCCl,InChI=1S/C4H8ClF/c5-3-1-2-4-6/h1-4H2,RYKUJAHSVIVAQV-UHFFFAOYSA-N,?,114.7,101893
101897,463-11-6,463-11-6,CCCCCCCCF,1-FLUOROOCTANE,"Octane, 1-fluoro-",1-Fluorooctane,20940,DTXSID70196787,CCCCCCCCF,"InChI=1S/C8H17F/c1-2-3-4-5-6-7-8-9/h2-8H2,1H3",DHIVLKMGKIZOHF-UHFFFAOYSA-N,?,142.4,101897
101901,463-58-1,463-58-1,O=C=S,CARBONYL SULFIDE,Carbonyl sulfide,thioxomethanone,20944,DTXSID6023949,O=C=S,InChI=1S/COS/c2-1-3,JJWKPURADFRFRB-UHFFFAOYSA-N,?,-50.0,101901
101905,464-07-3,NOCAS_861947,CC(O)C(C)(C)C,"3,3-DIMETHYL-2-BUTANOL",,,20948,DTXSID10861947,CC(O)C(C)(C)C,"InChI=1S/C6H14O/c1-5(7)6(2,3)4/h5,7H,1-4H3",DFOXKPDFWGNLJU-UHFFFAOYSA-N,?,120.0,101905
101909,464-45-9,464-45-9,CC1(C)[C@@H]2C[C@@H](O)[C@@]1(C)CC2,Borneol,[(1S)-endo]-(-)-Borneol,"(1S,2R,4S)-1,7,7-trimethylbicyclo[2.2.1]heptan-2-ol",20952,DTXSID3022035,CC1(C)C2CC(O)C1(C)CC2,"InChI=1S/C10H18O/c1-9(2)7-4-5-10(9,3)8(11)6-7/h7-8,11H,4-6H2,1-3H3",DTGKSKDOIYIVQL-UHFFFAOYSA-N,?,210.0,101909
101915,471-44-3,NOCAS_870547,OC(=O)C(F)Cl,Chlorofluoroacetic acid,,,20957,DTXSID40870547,OC(=O)C(F)Cl,"InChI=1S/C2H2ClFO2/c3-1(4)2(5)6/h1H,(H,5,6)",JBIKZDFUXGHTHD-UHFFFAOYSA-N,?,162.0,101915
101919,480-72-8,NOCAS_871668,C1CCc2cccc3CCC1c23,"ACENAPHTHYLENE, 1,2,2A,3,4,5-HEXAHYDRO-",,,20961,DTXSID70871668,C1CCc2cccc3CCC1c23,"InChI=1S/C12H14/c1-3-9-4-2-6-11-8-7-10(5-1)12(9)11/h1,3,5,11H,2,4,6-8H2",BDAGIAXQQBRORQ-UHFFFAOYSA-N,?,249.0,101919
101923,484-31-1,NOCAS_862007,COc1c(OC)c(CC=C)cc2OCOc12,Apiole (Dill),,,20965,DTXSID80862007,COc1c(OC)c(CC=C)cc2OCOc12,"InChI=1S/C12H14O4/c1-4-5-8-6-9-11(16-7-15-9)12(14-3)10(8)13-2/h4,6H,1,5,7H2,2-3H3",LIKYNOPXHGPMIH-UHFFFAOYSA-N,?,285.0,101923
101928,487-68-3,487-68-3,Cc1cc(C)c(C=O)c(C)c1,"Benzaldehyde, 2,4,6-trimethyl-","2,4,6-Trimethylbenzaldehyde","2,4,6-trimethylbenzaldehyde",20969,DTXSID5052125,Cc1cc(C)c(C=O)c(C)c1,"InChI=1S/C10H12O/c1-7-4-8(2)10(6-11)9(3)5-7/h4-6H,1-3H3",HIKRJHFHGKZKRI-UHFFFAOYSA-N,?,238.5,101928
101932,488-70-0,488-70-0,Cc1cc(O)c(C)c(C)c1C,"Phenol, 2,3,4,5-tetramethyl-","Phenol, 2,3,4,5-tetramethyl-","2,3,4,5-Tetramethylphenol",20973,DTXSID4060074,Cc1cc(O)c(C)c(C)c1C,"InChI=1S/C10H14O/c1-6-5-10(11)9(4)8(3)7(6)2/h5,11H,1-4H3",PXSSNPBEHHJLDH-UHFFFAOYSA-N,?,266.0,101932
101937,491-31-6,491-31-6,O=C1OC=Cc2ccccc21,1H-2-Benzopyran-1-one,1H-2-Benzopyran-1-one,isochromen-1-one,20977,DTXSID8060080,O=C1OC=Cc2ccccc21,InChI=1S/C9H6O2/c10-9-8-4-2-1-3-7(8)5-6-11-9/h1-6H,IQZZFVDIZRWADY-UHFFFAOYSA-N,?,286.0,101937
101941,492-22-8,492-22-8,O=C1c2ccccc2Sc2ccccc21,9H-THIOXANTHEN-9-ONE,Thioxanthone,Thioxanthen-9-one,20981,DTXSID8060082,O=C1c2ccccc2Sc2ccccc21,InChI=1S/C13H8OS/c14-13-9-5-1-3-7-11(9)15-12-8-4-2-6-10(12)13/h1-8H,YRHRIQCWCFGUEQ-UHFFFAOYSA-N,?,373.0,101941
101945,492-97-7,492-97-7,c1cc[s]c1-c1ccc[s]1,"2,2'-BITHIOPHENE","2,2'-Bithiophene",2-thiophen-2-ylthiophene,20985,DTXSID8060084,c1cc[s]c1-c1ccc[s]1,InChI=1S/C8H6S2/c1-3-7(9-5-1)8-4-2-6-10-8/h1-6H,OHZAHWOAMVVGEL-UHFFFAOYSA-N,?,260.0,101945
101951,494-97-3,494-97-3,C1CC[C@H](N1)c1c[n]ccc1,NORNICOTINE,"Pyridine, 3-(2S)-2-pyrrolidinyl-",3-[(2S)-pyrrolidin-2-yl]pyridine,20991,DTXSID7075420,C1CCC(N1)c1c[n]ccc1,"InChI=1S/C9H12N2/c1-3-8(7-10-5-1)9-4-2-6-11-9/h1,3,5,7,9,11H,2,4,6H2",MYKUKUCHPMASKF-UHFFFAOYSA-N,?,270.0,101951
101955,495-45-4,NOCAS_870560,CC(=CC(=O)c1ccccc1)c1ccccc1,"2-BUTEN-1-ONE, 1,3-DIPHENYL-",,,20995,DTXSID20870560,CC(=CC(=O)c1ccccc1)c1ccccc1,"InChI=1S/C16H14O/c1-13(14-8-4-2-5-9-14)12-16(17)15-10-6-3-7-11-15/h2-12H,1H3/b13-12+",PLELHVCQAULGBH-OUKQBFOZSA-N,?,342.5,101955
101959,496-15-1,496-15-1,C1CNc2ccccc21,"1H-Indole, 2,3-dihydro-",Indoline,indoline,20999,DTXSID9052133,C1CNc2ccccc21,"InChI=1S/C8H9N/c1-2-4-8-7(3-1)5-6-9-8/h1-4,9H,5-6H2",LPAGFVYQRIESJQ-UHFFFAOYSA-N,?,229.0,101959
101963,496-73-1,496-73-1,Cc1ccc(O)cc1O,"1,3-Benzenediol, 4-methyl-","1,3-Benzenediol, 4-methyl-","4-methylbenzene-1,3-diol",21003,DTXSID2060092,Cc1ccc(O)cc1O,"InChI=1S/C7H8O2/c1-5-2-3-6(8)4-7(5)9/h2-4,8-9H,1H3",FNYDIAAMUCQQDE-UHFFFAOYSA-N,?,268.5,101963
101967,497-26-7,497-26-7,CC1OCCO1,"1,3-Dioxolane, 2-methyl-","2-Methyl-1,3-dioxolane","2-Methyl-1,3-dioxolane",21007,DTXSID7060095,CC1OCCO1,"InChI=1S/C4H8O2/c1-4-5-2-3-6-4/h4H,2-3H2,1H3",HTWIZMNMTWYQRN-UHFFFAOYSA-N,?,81.5,101967
101971,498-02-2,498-02-2,CC(=O)c1cc(OC)c(O)cc1,"Ethanone, 1-(4-hydroxy-3-methoxyphenyl)-",Acetovanillone,1-(4-Hydroxy-3-methoxyphenyl)ethanone,21011,DTXSID7060097,CC(=O)c1cc(OC)c(O)cc1,"InChI=1S/C9H10O3/c1-6(10)7-3-4-8(11)9(5-7)12-2/h3-5,11H,1-2H3",DFYRUELUNQRZTB-UHFFFAOYSA-N,?,297.0,101971
101975,499-75-2,499-75-2,Cc1ccc(cc1O)C(C)C,"Phenol, 2-methyl-5-(1-methylethyl)-",Isopropyl-o-cresol,2-methyl-5-(propan-2-yl)phenol,21015,DTXSID6042074,Cc1ccc(cc1O)C(C)C,"InChI=1S/C10H14O/c1-7(2)9-5-4-8(3)10(11)6-9/h4-7,11H,1-3H3",RECUKUPTGUEGMW-UHFFFAOYSA-N,?,237.7,101975
101979,501-92-8,501-92-8,C=CCc1ccc(O)cc1,4-(2-PROPENYL)PHENOL,Chavicol,4-prop-2-enylphenol,21019,DTXSID60198210,C=CCc1ccc(O)cc1,"InChI=1S/C9H10O/c1-2-3-8-4-6-9(10)7-5-8/h2,4-7,10H,1,3H2",RGIBXDHONMXTLI-UHFFFAOYSA-N,?,238.0,101979
101983,502-49-8,502-49-8,O=C1CCCCCCC1,CYCLOOCTANONE,Cyclooctanone,Cyclooctanone,21023,DTXSID3060114,O=C1CCCCCCC1,InChI=1S/C8H14O/c9-8-6-4-2-1-3-5-7-8/h1-7H2,IIRFCWANHMSDCG-UHFFFAOYSA-N,?,196.0,101983
101987,503-17-3,503-17-3,CC#CC,2-BUTYNE,2-Butyne,but-2-yne,21027,DTXSID3060116,CC#CC,InChI=1S/C4H6/c1-3-4-2/h1-2H3,XNMQEEKYCVKGBD-UHFFFAOYSA-N,?,26.9,101987
101991,503-38-8,NOCAS_862065,O=C(Cl)OC(Cl)(Cl)Cl,Diphosgene,,,21031,DTXSID60862065,O=C(Cl)OC(Cl)(Cl)Cl,"InChI=1S/C2Cl4O2/c3-1(7)8-2(4,5)6",HCUYBXPSSCRKRF-UHFFFAOYSA-N,?,128.0,101991
101996,504-03-0,504-03-0,C[C@@H]1CCC[C@H](C)N1,"Piperidine, 2,6-dimethyl-",cis-Nanophine,"(2R,6S)-2,6-dimethylpiperidine",21035,DTXSID8048527,CC1CCCC(C)N1,"InChI=1S/C7H15N/c1-6-4-3-5-7(2)8-6/h6-8H,3-5H2,1-2H3",SDGKUVSVPIIUCF-UHFFFAOYSA-N,?,127.0,101996
102000,504-29-0,504-29-0,Nc1cccc[n]1,2-AMINOPYRIDINE,2-Aminopyridine,pyridin-2-amine,21039,DTXSID0024505,Nc1cccc[n]1,"InChI=1S/C5H6N2/c6-5-3-1-2-4-7-5/h1-4H,(H2,6,7)",ICSNLGPSRYBMBD-UHFFFAOYSA-N,?,210.6,102000
102004,504-63-2,504-63-2,OCCCO,"1,3-PROPANEDIOL","1,3-Propanediol","propane-1,3-diol",21043,DTXSID8041246,OCCCO,"InChI=1S/C3H8O2/c4-2-1-3-5/h4-5H,1-3H2",YPFDHNVEDLHUCE-UHFFFAOYSA-N,?,214.4,102004
102008,505-48-6,505-48-6,OC(=O)CCCCCCC(O)=O,SUBERIC ACID,Octanedioic acid,octanedioic acid,21047,DTXSID8021644,OC(=O)CCCCCCC(O)=O,"InChI=1S/C8H14O4/c9-7(10)5-3-1-2-4-6-8(11)12/h1-6H2,(H,9,10)(H,11,12)",TYFQFVWCELRYAO-UHFFFAOYSA-N,?,345.5,102008
102012,506-12-7,506-12-7,CCCCCCCCCCCCCCCCC(O)=O,HEPTADECANOIC ACID,Heptadecanoic acid,heptadecanoic acid,21051,DTXSID5021596,CCCCCCCCCCCCCCCCC(O)=O,"InChI=1S/C17H34O2/c1-2-3-4-5-6-7-8-9-10-11-12-13-14-15-16-17(18)19/h2-16H2,1H3,(H,18,19)",KEMQGTRYUADPNZ-UHFFFAOYSA-N,?,363.8,102012
102019,507-02-8,507-02-8,CC(=O)I,ACETYL IODIDE,Acetyl iodide,ACETYL IODIDE,21055,DTXSID0060141,CC(=O)I,InChI=1S/C2H3IO/c1-2(3)4/h1H3,LEKJTGQWLAUGQA-UHFFFAOYSA-N,?,108.0,102019