ChemID,source_casrn,CAS,SMILES,NAME,preferred_name,iupac,MPID,dsstox_substance_id,Canonical_QSARr,InChI_Code_QSARr,InChI Key_QSARr,Salt_Solvent,BP,ID
104451,2917-47-7,2917-47-7,C[Si](C)(C)CCCO,Propanol-trimethyl silane,3-(Trimethylsilyl)-1-propanol,3-trimethylsilylpropan-1-ol,23353,DTXSID5062710,C[Si](C)(C)CCCO,"InChI=1S/C6H16OSi/c1-8(2,3)6-4-5-7/h7H,4-6H2,1-3H3",YNUUCDHAZGAVEZ-UHFFFAOYSA-N,?,141.0,104451
104455,2935-90-2,2935-90-2,COC(=O)CCS,Methyl 3-mercaptopropionate,Methyl 3-sulfanylpropanoate,methyl 3-sulfanylpropanoate,23357,DTXSID6027509,COC(=O)CCS,"InChI=1S/C4H8O2S/c1-6-4(5)2-3-7/h7H,2-3H2,1H3",LDTLDBDUBGAEDT-UHFFFAOYSA-N,?,166.0,104455
104459,2947-61-7,2947-61-7,Cc1ccc(CC#N)cc1,"BENZENEACETONITRILE, 4-METHYL-",p-Tolylacetonitrile,2-(4-methylphenyl)acetonitrile,23361,DTXSID90183674,Cc1ccc(CC#N)cc1,"InChI=1S/C9H9N/c1-8-2-4-9(5-3-8)6-7-10/h2-5H,6H2,1H3",RNHKXHKUKJXLAU-UHFFFAOYSA-N,?,242.5,104459
104463,2987-53-3,2987-53-3,CSc1ccccc1N,O-METHIOANILINE,2-(Methylthio)aniline,2-methylsulfanylaniline,23365,DTXSID80183986,CSc1ccccc1N,"InChI=1S/C7H9NS/c1-9-7-5-3-2-4-6(7)8/h2-5H,8H2,1H3",WBRPQQSADOCKCH-UHFFFAOYSA-N,?,234.0,104463
104467,3010-02-4,3010-02-4,CCN(CC#N)CC,"Acetonitrile, (diethylamino)-","Acetonitrile, (diethylamino)-",2-diethylaminoacetonitrile,23369,DTXSID8062781,CCN(CC#N)CC,"InChI=1S/C6H12N2/c1-3-8(4-2)6-5-7/h3-4,6H2,1-2H3",LVPZSMIBSMMLPI-UHFFFAOYSA-N,?,170.0,104467
104471,3017-96-7,NOCAS_871004,CC(Cl)CBr,1-bromo-2-chloropropane,,,23373,DTXSID90871004,CC(Cl)CBr,"InChI=1S/C3H6BrCl/c1-3(5)2-4/h3H,2H2,1H3",YMHXXJJTAGKFBA-UHFFFAOYSA-N,?,118.0,104471
104475,3019-25-8,3019-25-8,CC(=O)C1CCC1,"ETHANONE, 1-CYCLOBUTYL-",1-Cyclobutylethan-1-one,1-cyclobutylethanone,23377,DTXSID50184263,CC(=O)C1CCC1,"InChI=1S/C6H10O/c1-5(7)6-3-2-4-6/h6H,2-4H2,1H3",JPJOOTWNILDNAW-UHFFFAOYSA-N,?,138.0,104475
104479,3034-53-5,3034-53-5,Brc1[n]cc[s]1,"Thiazole, 2-bromo-","Thiazole, 2-bromo-","2-Bromo-1,3-thiazole",23381,DTXSID9062805,Brc1[n]cc[s]1,InChI=1S/C3H2BrNS/c4-3-5-1-2-6-3/h1-2H,RXNZFHIEDZEUQM-UHFFFAOYSA-N,?,171.0,104479
104483,3048-64-4,3048-64-4,C=CC1CC2CC1C=C2,Vinylnorbornene,5-Vinyl-2-norbornene,5-ethenylbicyclo[2.2.1]hept-2-ene,23385,DTXSID6029250,C=CC1CC2CC1C=C2,"InChI=1S/C9H12/c1-2-8-5-7-3-4-9(8)6-7/h2-4,7-9H,1,5-6H2",INYHZQLKOKTDAI-UHFFFAOYSA-N,?,140.5,104483
104487,3073-66-3,3073-66-3,CC1CC(C)(C)CCC1,"1,1,3-TRIMETHYLCYCLOHEXANE","1,1,3-Trimethylcyclohexane",C9H18,23389,DTXSID60858746,CC1CC(C)(C)CCC1,"InChI=1S/C9H18/c1-8-5-4-6-9(2,3)7-8/h8H,4-7H2,1-3H3",PYOLJOJPIPCRDP-UHFFFAOYSA-N,?,136.6,104487
104491,3074-76-8,3074-76-8,CCCC(C)(CC)CC,"HEXANE, 3-ETHYL-3-METHYL-","Hexane, 3-ethyl-3-methyl-",3-ETHYL-3-METHYLHEXANE,23393,DTXSID30184766,CCCC(C)(CC)CC,"InChI=1S/C9H20/c1-5-8-9(4,6-2)7-3/h5-8H2,1-4H3",CYWROHZCELEGSE-UHFFFAOYSA-N,?,140.6,104491
104495,3085-53-8,3085-53-8,Cc1cc(ccc1)NC=O,N-m-Tolyl-formamide,3'-Methylformanilide,N-(3-methylphenyl)formamide,23397,DTXSID90184863,Cc1cc(ccc1)NC=O,"InChI=1S/C8H9NO/c1-7-3-2-4-8(5-7)9-6-10/h2-6H,1H3,(H,9,10)",JPXIYUADQNFRCK-UHFFFAOYSA-N,?,290.0,104495
104500,3140-93-0,3140-93-0,Brc1cc[s]c1Br,"THIOPHENE, 2,3-DIBROMO-","2,3-Dibromothiophene","2,3-Dibromothiophene",23402,DTXSID80185324,Brc1cc[s]c1Br,InChI=1S/C4H2Br2S/c5-3-1-2-7-4(3)6/h1-2H,ATRJNSFQBYKFSM-UHFFFAOYSA-N,?,218.5,104500
104504,3141-27-3,3141-27-3,Brc1ccc(Br)[s]1,"2,5-DIBROMOTHIOPHENE","Thiophene, 2,5-dibromo-","2,5-Dibromothiophene",23406,DTXSID3062863,Brc1ccc(Br)[s]1,InChI=1S/C4H2Br2S/c5-3-1-2-4(6)7-3/h1-2H,KBVDUUXRXJTAJC-UHFFFAOYSA-N,?,210.3,104504
104509,3172-52-9,3172-52-9,Clc1ccc(Cl)[s]1,"2,5-DICHLOROTHIOPHENE","Thiophene, 2,5-dichloro-","2,5-Dichlorothiophene",23410,DTXSID6062888,Clc1ccc(Cl)[s]1,InChI=1S/C4H2Cl2S/c5-3-1-2-4(6)7-3/h1-2H,FGYBDASKYMSNCX-UHFFFAOYSA-N,?,162.0,104509
104513,3175-23-3,3175-23-3,CC(Cl)(Cl)CCl,"1,2,2-TRICHLOROPROPANE","Propane, 1,2,2-trichloro-","1,2,2-TRICHLOROPROPANE",23414,DTXSID0062890,CC(Cl)(Cl)CCl,"InChI=1S/C3H5Cl3/c1-3(5,6)2-4/h2H2,1H3",DAIIXVPKQATIMF-UHFFFAOYSA-N,?,124.0,104513
104517,3179-63-3,3179-63-3,CN(C)CCCO,"1-Propanol, 3-(dimethylamino)-","1-Propanol, 3-(dimethylamino)-",3-Dimethylaminopropan-1-ol,23418,DTXSID5062895,CN(C)CCCO,"InChI=1S/C5H13NO/c1-6(2)4-3-5-7/h7H,3-5H2,1-2H3",PYSGFFTXMUWEOT-UHFFFAOYSA-N,?,163.5,104517
104521,3196-15-4,NOCAS_863122,CCC(Br)C(=O)OC,"Butanoic acid, 2-bromo-, methyl ester",,,23422,DTXSID50863122,CCC(Br)C(=O)OC,"InChI=1S/C5H9BrO2/c1-3-4(6)5(7)8-2/h4H,3H2,1-2H3",UFQQDNMQADCHGH-UHFFFAOYSA-N,?,168.0,104521
104525,3218-02-8,3218-02-8,NCC1CCCCC1,Cyclohexylmethylamine,Cyclohexanemethylamine,Cyclohexylmethanamine,23426,DTXSID10185958,NCC1CCCCC1,"InChI=1S/C7H15N/c8-6-7-4-2-1-3-5-7/h7H,1-6,8H2",AVKNGPAMCBSNSO-UHFFFAOYSA-N,?,160.0,104525
104529,3229-00-3,3229-00-3,BrCC(CBr)(CBr)CBr,"PROPANE, 1,3-DIBROMO-2,2-BIS(BROMOMETHYL)-","Propane, 1,3-dibromo-2,2-bis(bromomethyl)-","1,3-Dibromo-2,2-bis(bromomethyl)propane",23430,DTXSID1062916,BrCC(CBr)(CBr)CBr,"InChI=1S/C5H8Br4/c6-1-5(2-7,3-8)4-9/h1-4H2",OYSVBCSOQFXYHK-UHFFFAOYSA-N,?,305.5,104529
104533,3240-09-3,3240-09-3,CC(=O)CCC(C)=C,"5-Hexen-2-one, 5-methyl-","5-Hexen-2-one, 5-methyl-",5-Methylhex-5-en-2-one,23434,DTXSID5062928,CC(=O)CCC(C)=C,"InChI=1S/C7H12O/c1-6(2)4-5-7(3)8/h1,4-5H2,2-3H3",VBCIOOKAKHGVMI-UHFFFAOYSA-N,?,150.0,104533
104537,3268-79-9,3268-79-9,N#CSCCl,Chloro-thiocyanato-methane,"Thiocyanic acid, chloromethyl ester",chloro-thiocyanatomethane,23438,DTXSID80186351,N#CSCCl,InChI=1S/C2H2ClNS/c3-1-5-2-4/h1H2,UXUCVNXUWOLPRU-UHFFFAOYSA-N,?,185.0,104537
104542,3289-28-9,3289-28-9,CCOC(=O)C1CCCCC1,"Cyclohexanecarboxylic acid, ethyl ester","Cyclohexanecarboxylic acid, ethyl ester",Ethyl cyclohexanecarboxylate,23442,DTXSID7062958,CCOC(=O)C1CCCCC1,"InChI=1S/C9H16O2/c1-2-11-9(10)8-6-4-3-5-7-8/h8H,2-7H2,1H3",JJOYCHKVKWDMEA-UHFFFAOYSA-N,?,196.0,104542
104546,3329-48-4,NOCAS_863153,CC(C)CC(C)(O)C=C,"1-Hexen-3-ol, 3,5-dimethyl-",,,23446,DTXSID60863153,CC(C)CC(C)(O)C=C,"InChI=1S/C8H16O/c1-5-8(4,9)6-7(2)3/h5,7,9H,1,6H2,2-4H3",AOOGNPSUQVRFMF-UHFFFAOYSA-N,?,146.5,104546
104550,3354-58-3,3354-58-3,Cc1cccc(CC=C)c1O,2-Allyl-6-methylphenol,6-Allyl-o-cresol,2-methyl-6-prop-2-enylphenol,23450,DTXSID50187198,Cc1cccc(CC=C)c1O,"InChI=1S/C10H12O/c1-3-5-9-7-4-6-8(2)10(9)11/h3-4,6-7,11H,1,5H2,2H3",WREVCRYZAWNLRZ-UHFFFAOYSA-N,?,232.0,104550
104554,3384-04-1,3384-04-1,ClCCCOc1ccccc1,(3-Chloro-propoxy)-benzene,(3-Chloropropoxy)benzene,3-chloropropoxybenzene,23454,DTXSID20187483,ClCCCOc1ccccc1,"InChI=1S/C9H11ClO/c10-7-4-8-11-9-5-2-1-3-6-9/h1-3,5-6H,4,7-8H2",AZXLOLRTEJEZHJ-UHFFFAOYSA-N,?,250.0,104554
104558,3404-58-8,NOCAS_871020,CCC(CCC)C=C,3-ETHYL-1-HEXENE,,,23458,DTXSID50871020,CCC(CCC)C=C,"InChI=1S/C8H16/c1-4-7-8(5-2)6-3/h5,8H,2,4,6-7H2,1,3H3",OLGHJTHQWQKJQQ-UHFFFAOYSA-N,?,110.3,104558
104562,3404-71-5,NOCAS_871024,CCC(=C)CCC,2-ETHYL-1-PENTENE,,,23462,DTXSID90871024,CCC(=C)CCC,"InChI=1S/C7H14/c1-4-6-7(3)5-2/h3-6H2,1-2H3",TWCRBBJSQAZZQB-UHFFFAOYSA-N,?,94.0,104562
104566,3404-78-2,NOCAS_871025,CC(C)CC=C(C)C,"2,5-DIMETHYL-2-HEXENE",,,23466,DTXSID50871025,CC(C)CC=C(C)C,"InChI=1S/C8H16/c1-7(2)5-6-8(3)4/h5,8H,6H2,1-4H3",VFZIUYUUQFYZBR-UHFFFAOYSA-N,?,112.2,104566
104572,3452-09-3,3452-09-3,CCCCCCCC#C,1-NONYNE,1-Nonyne,non-1-yne,23470,DTXSID4063036,CCCCCCCC#C,"InChI=1S/C9H16/c1-3-5-7-9-8-6-4-2/h1H,4-9H2,2H3",OSSQSXOTMIGBCF-UHFFFAOYSA-N,?,150.8,104572
104576,3508-00-7,3508-00-7,CCCCCCCCCCCCCCCCCBr,1-BROMOHEPTADECANE,"Heptadecane,1-bromo-",1-bromoheptadecane,23474,DTXSID0049280,CCCCCCCCCCCCCCCCCBr,"InChI=1S/C17H35Br/c1-2-3-4-5-6-7-8-9-10-11-12-13-14-15-16-17-18/h2-17H2,1H3",HHSDZLLPIXMEIU-UHFFFAOYSA-N,?,349.0,104576
104580,3512-80-9,3512-80-9,Cc1cc(N)cc(C)[n]1,"2,6-Dimethyl-pyridin-4-ylamine","2,6-Dimethylpyridin-4-amine","2,6-Dimethylpyridin-4-amine",23478,DTXSID10188621,Cc1cc(N)cc(C)[n]1,"InChI=1S/C7H10N2/c1-5-3-7(8)4-6(2)9-5/h3-4H,1-2H3,(H2,8,9)",ZJXMKPARTVOUAM-UHFFFAOYSA-N,?,246.0,104580
104584,3524-75-2,3524-75-2,C=CCC1CCCC1,"CYCLOPENTANE, 2-PROPENYL-",3-Cyclopentylpropene,prop-2-enylcyclopentane,23482,DTXSID20188733,C=CCC1CCCC1,"InChI=1S/C8H14/c1-2-5-8-6-3-4-7-8/h2,8H,1,3-7H2",NHIDGVQVYHCGEK-UHFFFAOYSA-N,?,125.0,104584
104589,3581-87-1,3581-87-1,Cc1[n]cc[s]1,2-Methyl-thiazole,2-Methylthiazole,,23486,DTXSID20189346,Cc1[n]cc[s]1,"InChI=1S/C4H5NS/c1-4-5-2-3-6-4/h2-3H,1H3",VZWOXDYRBDIHMA-UHFFFAOYSA-N,?,128.5,104589
104593,3586-14-9,3586-14-9,Cc1cc(ccc1)Oc1ccccc1,"Benzene, 1-methyl-3-phenoxy-",1-Methyl-3-phenoxybenzene,1-methyl-3-phenoxybenzene,23490,DTXSID8027537,Cc1cc(ccc1)Oc1ccccc1,"InChI=1S/C13H12O/c1-11-6-5-9-13(10-11)14-12-7-3-2-4-8-12/h2-10H,1H3",UDONPJKEOAWFGI-UHFFFAOYSA-N,?,272.0,104593
104597,3622-84-2,3622-84-2,CCCCNS(=O)(=O)c1ccccc1,N-Butylbenzenesulfonamide,N-Butylbenzenesulfonamide,N-butylbenzenesulfonamide,23494,DTXSID7027540,CCCCNS(=O)(=O)c1ccccc1,"InChI=1S/C10H15NO2S/c1-2-3-9-11-14(12,13)10-7-5-4-6-8-10/h4-8,11H,2-3,9H2,1H3",IPRJXAGUEGOFGG-UHFFFAOYSA-N,?,314.0,104597
104601,3638-64-0,3638-64-0,C=C[N+]([O-])=O,Nitroethene,"Ethene, nitro-",1-nitroethene,23498,DTXSID0075235,C=C[N+]([O-])=O,"InChI=1S/C2H3NO2/c1-2-3(4)5/h2H,1H2",RPMXALUWKZHYOV-UHFFFAOYSA-N,?,98.5,104601
104605,3675-68-1,NOCAS_871039,CCC(Br)C(Br)Br,"Butane, 1,1,2-tribromo-",,,23502,DTXSID40871039,CCC(Br)C(Br)Br,"InChI=1S/C4H7Br3/c1-2-3(5)4(6)7/h3-4H,2H2,1H3",WMGQSHQUFZATPG-UHFFFAOYSA-N,?,216.2,104605
104609,3710-30-3,3710-30-3,C=CCCCCC=C,"1,7-Octadiene","1,7-Octadiene","Octa-1,7-diene",23506,DTXSID6063147,C=CCCCCC=C,"InChI=1S/C8H14/c1-3-5-7-8-6-4-2/h3-4H,1-2,5-8H2",XWJBRBSPAODJER-UHFFFAOYSA-N,?,115.5,104609
104613,3721-95-7,3721-95-7,OC(=O)C1CCC1,Cyclobutanecarboxylic acid,Cyclobutanecarboxylic acid,cyclobutanecarboxylic acid,23510,DTXSID3057725,OC(=O)C1CCC1,"InChI=1S/C5H8O2/c6-5(7)4-2-1-3-4/h4H,1-3H2,(H,6,7)",TXWOGHSRPAYOML-UHFFFAOYSA-N,?,190.0,104613
104618,3731-53-1,3731-53-1,NCc1cc[n]cc1,4-PYRIDINEMETHANEAMINE,4-Pyridinemethanamine,pyridin-4-ylmethanamine,23515,DTXSID0063153,NCc1cc[n]cc1,"InChI=1S/C6H8N2/c7-5-6-1-3-8-4-2-6/h1-4H,5,7H2",TXQWFIVRZNOPCK-UHFFFAOYSA-N,?,230.0,104618
104622,3748-13-8,3748-13-8,CC(=C)c1cc(ccc1)C(C)=C,"Benzene, 1,3-bis(1-methylethenyl)-","1,3-Diisopropenylbenzene","1,3-di(prop-1-en-2-yl)benzene",23519,DTXSID7027546,CC(=C)c1cc(ccc1)C(C)=C,"InChI=1S/C12H14/c1-9(2)11-6-5-7-12(8-11)10(3)4/h5-8H,1,3H2,2,4H3",IBVPVTPPYGGAEL-UHFFFAOYSA-N,?,231.0,104622
104626,3768-43-2,NOCAS_871042,CC1CCCNC1=O,3-Methyl-piperidin-2-one,,,23523,DTXSID70871042,CC1CCCNC1=O,"InChI=1S/C6H11NO/c1-5-3-2-4-7-6(5)8/h5H,2-4H2,1H3,(H,7,8)",PHGAOXNFCZKFTR-UHFFFAOYSA-N,?,249.5,104626
104630,3788-32-7,3788-32-7,CC(C)CC1CCCC1,"CYCLOPENTANE, (2-METHYLPROPYL)-",Isobutylcyclopentane,2-methylpropylcyclopentane,23527,DTXSID90191315,CC(C)CC1CCCC1,"InChI=1S/C9H18/c1-8(2)7-9-5-3-4-6-9/h8-9H,3-7H2,1-2H3",DPUYDFJBHDYVQM-UHFFFAOYSA-N,?,148.0,104630
104634,3850-30-4,66228-31-7,C[C@@H](N)C(C)(C)C,"2-Butanamine, 3,3-dimethyl-","(R)-(-)-3,3-Dimethyl-2-butylamine, (S)-(+)-3,3-Dimethyl-2-butylamine",C6H15N,23531,DTXSID10415964,CC(N)C(C)(C)C,"InChI=1S/C6H15N/c1-5(7)6(2,3)4/h5H,7H2,1-4H3",DXSUORGKJZADET-UHFFFAOYSA-N,?,102.0,104634
104638,3877-15-4,3877-15-4,CCCSC,N-PROPYLMETHYLSULFIDE,"Propane, 1-(methylthio)-",1-methylsulfanylpropane,23535,DTXSID9073969,CCCSC,"InChI=1S/C4H10S/c1-3-4-5-2/h3-4H2,1-2H3",ZOASGOXWEHUTKZ-UHFFFAOYSA-N,?,95.6,104638
104642,3917-15-5,3917-15-5,C=COCC=C,"1-PROPENE, 3-(ETHENYLOXY)-","Ether, allyl vinyl",3-ethenoxyprop-1-ene,23539,DTXSID70192406,C=COCC=C,"InChI=1S/C5H8O/c1-3-5-6-4-2/h3-4H,1-2,5H2",ZXABMDQSAABDMG-UHFFFAOYSA-N,?,66.0,104642
104646,3943-77-9,3943-77-9,CCOC(=O)c1cc(OC)c(cc1)OC,"3,4-Dimethoxy-benzoic acid ethyl ester","Benzoic acid, 3,4-dimethoxy-, ethyl ester","Ethyl 3,4-dimethoxybenzoate",23543,DTXSID80192598,CCOC(=O)c1cc(OC)c(cc1)OC,"InChI=1S/C11H14O4/c1-4-15-11(12)8-5-6-9(13-2)10(7-8)14-3/h5-7H,4H2,1-3H3",AYYNUGSDPRDVCH-UHFFFAOYSA-N,?,295.5,104646
104650,3959-07-7,3959-07-7,NCc1ccc(Br)cc1,4-Bromo-benzylamine,4-Bromobenzylamine,(4-bromophenyl)methanamine,23547,DTXSID70192704,NCc1ccc(Br)cc1,"InChI=1S/C7H8BrN/c8-7-3-1-6(5-9)2-4-7/h1-4H,5,9H2",XRNVSPDQTPVECU-UHFFFAOYSA-N,?,250.0,104650
104654,3972-56-3,3972-56-3,CC(C)(C)c1ccc(Cl)cc1,"Benzene, 1-chloro-4-(1,1-dimethylethyl)-",4-tert-Butylchlorobenzene,1-tert-Butyl-4-chlorobenzene,23551,DTXSID3063251,CC(C)(C)c1ccc(Cl)cc1,"InChI=1S/C10H13Cl/c1-10(2,3)8-4-6-9(11)7-5-8/h4-7H,1-3H3",XRTANKYQJQXSFP-UHFFFAOYSA-N,?,213.0,104654
104658,3976-36-1,3976-36-1,Cc1cc(C)c(cc1)-c1ccc(C)cc1C,"2,4,2',4'-Tetramethyl-biphenyl","1,1'-Biphenyl, 2,2',4,4'-tetramethyl-",C16H18,23555,DTXSID10334505,Cc1cc(C)c(cc1)-c1ccc(C)cc1C,"InChI=1S/C16H18/c1-11-5-7-15(13(3)9-11)16-8-6-12(2)10-14(16)4/h5-10H,1-4H3",PZCRCGZQRHMEDY-UHFFFAOYSA-N,?,287.0,104658
104662,4016-11-9,NOCAS_871049,CCOCC1CO1,"Oxirane, (ethoxymethyl)-",,,23559,DTXSID90871049,CCOCC1CO1,"InChI=1S/C5H10O2/c1-2-6-3-5-4-7-5/h5H,2-4H2,1H3",HQCSZRIVJVOYSU-UHFFFAOYSA-N,?,128.0,104662
104666,4032-93-3,NOCAS_871050,CC(C)CCC(C)C(C)C,"HEPTANE, 2,3,6-TRIMETHYL-",,,23563,DTXSID00871050,CC(C)CCC(C)C(C)C,"InChI=1S/C10H22/c1-8(2)6-7-10(5)9(3)4/h8-10H,6-7H2,1-5H3",IHPXJGBVRWFEJB-UHFFFAOYSA-N,?,156.0,104666
104670,4049-81-4,4049-81-4,CC(=C)CCC=C,"2-METHYL-1,5-HEXADIENE","2-Methylhexa-1,5-diene","2-Methylhexa-1,5-diene",23567,DTXSID00193502,CC(=C)CCC=C,"InChI=1S/C7H12/c1-4-5-6-7(2)3/h4H,1-2,5-6H2,3H3",SLQMKNPIYMOEGB-UHFFFAOYSA-N,?,88.1,104670
104675,4074-43-5,4074-43-5,CCCCc1cccc(O)c1,3-Butylphenol,m-Butylphenol,3-Butylphenol,23571,DTXSID60193725,CCCCc1cccc(O)c1,"InChI=1S/C10H14O/c1-2-3-5-9-6-4-7-10(11)8-9/h4,6-8,11H,2-3,5H2,1H3",MQSXUKPGWMJYBT-UHFFFAOYSA-N,?,248.0,104675
104680,4096-20-2,4096-20-2,C1CCCCN1c1ccccc1,N-PHENYLPIPERIDINE,"Piperidine, 1-phenyl-",1-Phenylpiperidine,23575,DTXSID4063294,C1CCCCN1c1ccccc1,"InChI=1S/C11H15N/c1-3-7-11(8-4-1)12-9-5-2-6-10-12/h1,3-4,7-8H,2,5-6,9-10H2",LLSKXGRDUPMXLC-UHFFFAOYSA-N,?,258.0,104680
104685,4110-50-3,4110-50-3,CCSCCC,ETHYLPROPYLSULFIDE,Ethyl propyl sulfide,ethyl propyl sulfide,23579,DTXSID3041958,CCSCCC,"InChI=1S/C5H12S/c1-3-5-6-4-2/h3-5H2,1-2H3",ZDDDFDQTSXYYSE-UHFFFAOYSA-N,?,118.6,104685
104690,4151-50-2,4151-50-2,CCNS(=O)(=O)C(F)(F)C(F)(F)C(F)(F)C(F)(F)C(F)(F)C(F)(F)C(F)(F)C(F)(F)F,SULFLURAMID,Sulfluramid,"N-ethyl-1,1,2,2,3,3,4,4,5,5,6,6,7,7,8,8,8-heptadecafluorooctane-1-sulfonamide",23584,DTXSID1032646,CCNS(=O)(=O)C(F)(F)C(F)(F)C(F)(F)C(F)(F)C(F)(F)C(F)(F)C(F)(F)C(F)(F)F,"InChI=1S/C10H6F17NO2S/c1-2-28-31(29,30)10(26,27)8(21,22)6(17,18)4(13,14)3(11,12)5(15,16)7(19,20)9(23,24)25/h28H,2H2,1H3",CCEKAJIANROZEO-UHFFFAOYSA-N,?,196.0,104690
104694,4167-77-5,4167-77-5,CCOC(=O)C1(CCCC1)C(=O)OCC,"Cyclopentane-1,1-dicarboxylic acid diethyl ester","Diethyl 1,1-cyclopentanedicarboxylate","diethyl cyclopentane-1,1-dicarboxylate",23588,DTXSID40194492,CCOC(=O)C1(CCCC1)C(=O)OCC,"InChI=1S/C11H18O4/c1-3-14-9(12)11(7-5-6-8-11)10(13)15-4-2/h3-8H2,1-2H3",NAKRHRXBVSLQAO-UHFFFAOYSA-N,?,210.0,104694
104700,4187-86-4,3347-88-4,CC[C@@H](O)C#C,Pent-1-yn-3-ol,ZINC01690299,C5H8O,23594,DTXSID70426379,CCC(O)C#C,"InChI=1S/C5H8O/c1-3-5(6)4-2/h1,5-6H,4H2,2H3",LBSKEFWQPNVWTP-UHFFFAOYSA-N,?,125.0,104700
104704,4208-49-5,4208-49-5,C=CCOC(=O)c1ccco1,"2-Furancarboxylic acid, 2-propenyl ester","2-Furancarboxylic acid, 2-propenyl ester",prop-2-enyl furan-2-carboxylate,23598,DTXSID6063353,C=CCOC(=O)c1ccco1,"InChI=1S/C8H8O3/c1-2-5-11-8(9)7-4-3-6-10-7/h2-4,6H,1,5H2",SJRQTHAMRUOPBJ-UHFFFAOYSA-N,?,207.5,104704
104708,4219-24-3,4219-24-3,CCC=CCC(O)=O,3-Hexenoic acid,3-Hexenoic acid,,23602,DTXSID5063362,CCC=CCC(O)=O,"InChI=1S/C6H10O2/c1-2-3-4-5-6(7)8/h3-4H,2,5H2,1H3,(H,7,8)/b4-3+",XXHDAWYDNSXJQM-ONEGZZNKSA-N,?,208.0,104708
104712,4253-89-8,4253-89-8,CC(C)SSC(C)C,Isopropyl disulfide,Isopropyl disulfide,dipropan-2-yl disulfide,23606,DTXSID6022216,CC(C)SSC(C)C,"InChI=1S/C6H14S2/c1-5(2)7-8-6(3)4/h5-6H,1-4H3",LZAZXBXPKRULLB-UHFFFAOYSA-N,?,177.0,104712
104716,4265-97-8,4265-97-8,CCCCCCCC(=O)OCCCCCCC,Octanoic acid heptyl ester,Heptyl octanoate,Heptyl octanoate,23610,DTXSID80195382,CCCCCCCC(=O)OCCCCCCC,"InChI=1S/C15H30O2/c1-3-5-7-9-11-13-15(16)17-14-12-10-8-6-4-2/h3-14H2,1-2H3",TZXWLJYLYILFGM-UHFFFAOYSA-N,?,290.5,104716
104720,4285-42-1,4285-42-1,CN(C(=O)Cl)c1ccccc1,"Carbamic chloride, methylphenyl-","Carbamic chloride, methylphenyl-",N-Methyl-N-phenylcarbamoyl chloride,23614,DTXSID7063396,CN(C(=O)Cl)c1ccccc1,"InChI=1S/C8H8ClNO/c1-10(8(9)11)7-5-3-2-4-6-7/h2-6H,1H3",CPGWSLFYXMRNDV-UHFFFAOYSA-N,?,280.0,104720
104724,4292-19-7,4292-19-7,CCCCCCCCCCCCI,1-IODODODECANE,"Dodecane,1-iodo-",1-iodododecane,23618,DTXSID1049302,CCCCCCCCCCCCI,"InChI=1S/C12H25I/c1-2-3-4-5-6-7-8-9-10-11-12-13/h2-12H2,1H3",GCDPERPXPREHJF-UHFFFAOYSA-N,?,298.2,104724
104728,4319-49-7,4319-49-7,NN1CCOCC1,Morpholin-4-ylamine,4-Morpholinamine (9CI),morpholin-4-amine,23622,DTXSID60195769,NN1CCOCC1,InChI=1S/C4H10N2O/c5-6-1-3-7-4-2-6/h1-5H2,MKQLBNJQQZRQJU-UHFFFAOYSA-N,?,166.0,104728
104732,4351-54-6,4351-54-6,O=COC1CCCCC1,"FORMIC ACID, CYCLOHEXYL ESTER","Formic acid, cyclohexyl ester",Cyclohexyl formate,23626,DTXSID2063426,O=COC1CCCCC1,"InChI=1S/C7H12O2/c8-6-9-7-4-2-1-3-5-7/h6-7H,1-5H2",VUXKVKAHWOVIDN-UHFFFAOYSA-N,?,163.0,104732
104739,4426-11-3,4426-11-3,N#CC1CCC1,Cyclobutanecarbonitrile,Cyanocyclobutane,Cyclobutanecarbonitrile,23631,DTXSID30196086,N#CC1CCC1,"InChI=1S/C5H7N/c6-4-5-2-1-3-5/h5H,1-3H2",GFBLFDSCAKHHGX-UHFFFAOYSA-N,?,149.6,104739
104743,4437-50-7,NOCAS_871079,CC(=O)C(C)CC(C)=O,"3-Methyl-hexane-2,5-dione",,,23635,DTXSID40871079,CC(=O)C(C)CC(C)=O,"InChI=1S/C7H12O2/c1-5(7(3)9)4-6(2)8/h5H,4H2,1-3H3",NLLILAUVOOREKR-UHFFFAOYSA-N,?,196.0,104743
104747,4443-55-4,4443-55-4,CCCCCCCCCCCCCCCCCCCCC1CCCCC1,EICOSYLCYCLOHEXANE,"Cyclohexane, eicosyl-",icosylcyclohexane,23639,DTXSID1075064,CCCCCCCCCCCCCCCCCCCCC1CCCCC1,"InChI=1S/C26H52/c1-2-3-4-5-6-7-8-9-10-11-12-13-14-15-16-17-18-20-23-26-24-21-19-22-25-26/h26H,2-25H2,1H3",PSPNTGGVAYLSJO-UHFFFAOYSA-N,?,430.0,104747
104751,4454-05-1,4454-05-1,COC1CCC=CO1,"2-Methoxy-3,4-dihydro-2H-pyran","2-Methoxy-3,4-dihydro-2H-pyran","2-methoxy-3,4-dihydro-2H-pyran",23643,DTXSID9027570,COC1CCC=CO1,"InChI=1S/C6H10O2/c1-7-6-4-2-3-5-8-6/h3,5-6H,2,4H2,1H3",XCYWUZHUTJDTGS-UHFFFAOYSA-N,?,117.6,104751
104756,4468-42-2,4468-42-2,CCC(CCC)c1ccccc1,"BENZENE, (1-ETHYLBUTYL)-",3-Phenylhexane,hexan-3-ylbenzene,23648,DTXSID4041492,CCC(CCC)c1ccccc1,"InChI=1S/C12H18/c1-3-8-11(4-2)12-9-6-5-7-10-12/h5-7,9-11H,3-4,8H2,1-2H3",SLVCCWGFGQVDMN-UHFFFAOYSA-N,?,209.0,104756
104760,4497-29-4,4497-29-4,BrCOCBr,Bromo-bromomethoxy-methane,PUBCHEM_13349653,C2H4Br2O,23652,DTXSID40537840,BrCOCBr,InChI=1S/C2H4Br2O/c3-1-5-2-4/h1-2H2,CVDGHGWEHQIJTE-UHFFFAOYSA-N,?,154.5,104760
104765,4549-31-9,4549-31-9,BrCCCCCCCBr,"Heptane, 1,7-dibromo-","Heptane, 1,7-dibromo-","1,7-Dibromoheptane",23656,DTXSID6063519,BrCCCCCCCBr,InChI=1S/C7H14Br2/c8-6-4-2-1-3-5-7-9/h1-7H2,LVWSZGCVEZRFBT-UHFFFAOYSA-N,?,263.0,104765
104769,4588-18-5,4588-18-5,CCCCCCC(C)=C,"1-OCTENE, 2-METHYL-",2-Methyl-1-octene,2-methyloct-1-ene,23660,DTXSID60196635,CCCCCCC(C)=C,"InChI=1S/C9H18/c1-4-5-6-7-8-9(2)3/h2,4-8H2,1,3H3",FBEDQPGLIKZGIN-UHFFFAOYSA-N,?,144.8,104769
104773,4620-70-6,4620-70-6,CC(C)(C)NCCO,"ETHANOL, 2- (1,1-DIMETHYLETHYL)AMINO -",2-(tert-Butylamino)ethanol,2-(tert-butylamino)ethanol,23664,DTXSID1044431,CC(C)(C)NCCO,"InChI=1S/C6H15NO/c1-6(2,3)7-4-5-8/h7-8H,4-5H2,1-3H3",IUXYVKZUDNLISR-UHFFFAOYSA-N,?,176.5,104773
104778,4645-15-2,4645-15-2,C1CCCCC1OC1CCCCC1,"CYCLOHEXANE, 1,1'-OXYBIS-","1,1'-Oxybis(cyclohexane)",cyclohexyloxycyclohexane,23669,DTXSID70196843,C1CCCCC1OC1CCCCC1,"InChI=1S/C12H22O/c1-3-7-11(8-4-1)13-12-9-5-2-6-10-12/h11-12H,1-10H2",OCDXZFSOHJRGIL-UHFFFAOYSA-N,?,242.5,104778
104782,4670-56-8,NOCAS_863434,Cc1ccc(c(O)c1)C(=O)OC,2-Hydroxy-4-methyl-benzoic acid methyl ester,,,23673,DTXSID40863434,Cc1ccc(c(O)c1)C(=O)OC,"InChI=1S/C9H10O3/c1-6-3-4-7(8(10)5-6)9(11)12-2/h3-5,10H,1-2H3",UITFCFWKYAOJEJ-UHFFFAOYSA-N,?,243.0,104782
104786,4706-81-4,82272-45-5,CCCCCCCCCCCC[C@H](C)O,2-TETRADECANOL,PUBCHEM_25022194,C14H30O,23677,DTXSID60648487,CCCCCCCCCCCCC(C)O,"InChI=1S/C14H30O/c1-3-4-5-6-7-8-9-10-11-12-13-14(2)15/h14-15H,3-13H2,1-2H3",BRGJIIMZXMWMCC-UHFFFAOYSA-N,?,284.0,104786