ChemID,source_casrn,CAS,SMILES,NAME,preferred_name,iupac,MPID,dsstox_substance_id,Canonical_QSARr,InChI_Code_QSARr,InChI Key_QSARr,Salt_Solvent,Salt_Solvent_ID,MP,ID
100235,59-31-4,59-31-4,O=C1C=Cc2ccccc2N1,2-(1H)-QUINOLINONE,2(1H)-Quinolinone,1H-quinolin-2-one,27625,DTXSID1058769,O=C1C=Cc2ccccc2N1,"InChI=1S/C9H7NO/c11-9-6-5-7-3-1-2-4-8(7)10-9/h1-6H,(H,10,11)",LISFMEBWQUVKPJ-UHFFFAOYSA-N,?,,199.5,100235
100236,59-40-5,59-40-5,Nc1ccc(cc1)S(=O)(=O)Nc1c[n]c2ccccc2[n]1,SULFAQUINOXALINE,Sulfaquinoxaline,4-amino-N-(quinoxalin-2-yl)benzenesulfonamide,27626,DTXSID8042424,Nc1ccc(cc1)S(=O)(=O)Nc1c[n]c2ccccc2[n]1,"InChI=1S/C14H12N4O2S/c15-10-5-7-11(8-6-10)21(19,20)18-14-9-16-12-3-1-2-4-13(12)17-14/h1-9H,15H2,(H,17,18)",NHZLNPMOSADWGC-UHFFFAOYSA-N,?,,247.5,100236
100237,59-46-1,59-46-1,CCN(CCOC(=O)c1ccc(N)cc1)CC,PROCAINE,Procaine,2-(diethylamino)ethyl 4-aminobenzoate,27627,DTXSID7045021,CCN(CCOC(=O)c1ccc(N)cc1)CC,"InChI=1S/C13H20N2O2/c1-3-15(4-2)9-10-17-13(16)11-5-7-12(14)8-6-11/h5-8H,3-4,9-10,14H2,1-2H3",MFDFERRIHVXMIY-UHFFFAOYSA-N,?,,61.0,100237
100239,59-49-4,59-49-4,O=C1Nc2ccccc2O1,O-PHENYLENE CARBAMATE,2-Benzoxazolinone,"1,3-benzoxazol-2(3H)-one",27629,DTXSID9049324,O=C1Nc2ccccc2O1,"InChI=1S/C7H5NO2/c9-7-8-5-3-1-2-4-6(5)10-7/h1-4H,(H,8,9)",ASSKVPFEZFQQNQ-UHFFFAOYSA-N,?,,138.0,100239
100240,59-50-7,59-50-7,Cc1cc(O)ccc1Cl,3-METHYL-4-CHLOROPHENOL,4-Chloro-3-methylphenol,4-chloro-3-methylphenol,27630,DTXSID4021717,Cc1cc(O)ccc1Cl,"InChI=1S/C7H7ClO/c1-5-4-6(9)2-3-7(5)8/h2-4,9H,1H3",CFKMVGJGLGKFKI-UHFFFAOYSA-N,?,,67.0,100240
100241,59-63-2,59-63-2,Cc1cc([n]o1)C(=O)NNCc1ccccc1,ISOCARBOXAZID,Isocarboxazid,"N'-benzyl-5-methyl-1,2-oxazole-3-carbohydrazide",27631,DTXSID4023171,Cc1cc([n]o1)C(=O)NNCc1ccccc1,"InChI=1S/C12H13N3O2/c1-9-7-11(15-17-9)12(16)14-13-8-10-5-3-2-4-6-10/h2-7,13H,8H2,1H3,(H,14,16)",XKFPYPQQHFEXRZ-UHFFFAOYSA-N,?,,105.5,100241
100243,59-67-6,59-67-6,OC(=O)c1ccc[n]c1,NICOTINIC ACID,Nicotinic acid,C6H5NO2,27633,DTXSID1020932,OC(=O)c1ccc[n]c1,"InChI=1S/C6H5NO2/c8-6(9)5-2-1-3-7-4-5/h1-4H,(H,8,9)",PVNIIMVLHYAWGP-UHFFFAOYSA-N,?,,236.6,100243
100244,59-89-2,59-89-2,O=NN1CCOCC1,N-NITROSOMORPHOLINE,N-Nitrosomorpholine,4-nitrosomorpholine,27634,DTXSID4021056,O=NN1CCOCC1,InChI=1S/C4H8N2O2/c7-5-6-1-3-8-4-2-6/h1-4H2,ZKXDGKXYMTYWTB-UHFFFAOYSA-N,?,,29.0,100244
100245,59-96-1,59-96-1,CC(COc1ccccc1)N(CCCl)Cc1ccccc1,Phenoxybenzamine,Phenoxybenzamine,N-benzyl-N-(2-chloroethyl)-1-phenoxypropan-2-amine,27635,DTXSID0023458,CC(COc1ccccc1)N(CCCl)Cc1ccccc1,"InChI=1S/C18H22ClNO/c1-16(15-21-18-10-6-3-7-11-18)20(13-12-19)14-17-8-4-2-5-9-17/h2-11,16H,12-15H2,1H3",QZVCTJOXCFMACW-UHFFFAOYSA-N,?,,39.0,100245
100249,60-09-3,60-09-3,Nc1ccc(cc1)/N=N/c1ccccc1,P-PHENYLAZOANILINE,4-Aminoazobenzene,4-[(E)-phenyldiazenyl]aniline,27637,DTXSID6024460,Nc1ccc(cc1)N=Nc1ccccc1,"InChI=1S/C12H11N3/c13-10-6-8-12(9-7-10)15-14-11-4-2-1-3-5-11/h1-9H,13H2/b15-14+",QPQKUYVSJWQSDY-CCEZHUSRSA-N,?,,127.0,100249
100250,60-11-7,60-11-7,CN(C)c1ccc(cc1)N=Nc1ccccc1,"4-(N,N-DIMETHYLAMINO)AZOBENZENE",4-(Dimethylamino)azobenzene,"N,N-dimethyl-4-(phenyldiazenyl)aniline",27638,DTXSID5020491,CN(C)c1ccc(cc1)N=Nc1ccccc1,"InChI=1S/C14H15N3/c1-17(2)14-10-8-13(9-11-14)16-15-12-6-4-3-5-7-12/h3-11H,1-2H3/b16-15+",JCYPECIVGRXBMO-FOCLMDBBSA-N,?,,117.0,100250
100252,60-19-5,60-19-5,Cl.NCCc1ccc(O)cc1,Tyramine hydrochloride,Tyramine hydrochloride,4-(2-aminoethyl)phenol hydrochloride (1:1),27640,DTXSID8034087,NCCc1ccc(O)cc1,"InChI=1S/C8H11NO/c9-6-5-7-1-3-8(10)4-2-7/h1-4,10H,5-6,9H2",DZGWFCGJZKJUFP-UHFFFAOYSA-N,Cl,18179,272.5,100252
100253,60-23-1,60-23-1,NCCS,2-Aminoethanethiol,Cysteamine,2-aminoethanethiol,27641,DTXSID3022875,NCCS,"InChI=1S/C2H7NS/c3-1-2-4/h4H,1-3H2",UFULAYFCSOUIOV-UHFFFAOYSA-N,?,,98.0,100253
100254,60-29-7,60-29-7,CCOCC,DIETHYL ETHER,Diethyl ether,diethyl ether,27642,DTXSID3021720,CCOCC,"InChI=1S/C4H10O/c1-3-5-4-2/h3-4H2,1-2H3",RTZKZFJDLAIYFH-UHFFFAOYSA-N,?,,-116.3,100254
100257,60-33-3,60-33-3,CCCCC/C=C\C/C=C\CCCCCCCC(O)=O,LINOLEIC ACID,Linoleic acid,"(9Z,12Z)-octadeca-9,12-dienoic acid",27644,DTXSID2025505,CCCCCC=CCC=CCCCCCCCC(O)=O,"InChI=1S/C18H32O2/c1-2-3-4-5-6-7-8-9-10-11-12-13-14-15-16-17-18(19)20/h6-7,9-10H,2-5,8,11-17H2,1H3,(H,19,20)/b7-6+,10-9+",OYHQOLUKZRVURQ-AVQMFFATSA-N,?,,-8.5,100257
100258,60-34-4,60-34-4,CNN,METHYL HYDRAZINE,Methylhydrazine,methylhydrazine,27645,DTXSID4020874,CNN,"InChI=1S/CH6N2/c1-3-2/h3H,2H2,1H3",HDZGCSFEDULWCS-UHFFFAOYSA-N,?,,-52.4,100258
100259,60-35-5,60-35-5,CC(N)=O,ACETAMIDE,Acetamide,acetamide,27646,DTXSID7020005,CC(N)=O,"InChI=1S/C2H5NO/c1-2(3)4/h1H3,(H2,3,4)",DLFVBJFMPXGRIB-UHFFFAOYSA-N,?,,81.0,100259
100261,60-46-8,60-46-8,CC(CC(C(N)=O)(c1ccccc1)c1ccccc1)N(C)C,Aminopentamide,Aminopentamide,"4-(dimethylamino)-2,2-diphenylpentanamide",27648,DTXSID2057605,CC(CC(C(N)=O)(c1ccccc1)c1ccccc1)N(C)C,"InChI=1S/C19H24N2O/c1-15(21(2)3)14-19(18(20)22,16-10-6-4-7-11-16)17-12-8-5-9-13-17/h4-13,15H,14H2,1-3H3,(H2,20,22)",NARHAGIVSFTMIG-UHFFFAOYSA-N,?,,137.0,100261
100262,60-51-5,60-51-5,CNC(=O)CSP(=S)(OC)OC,DIMETHOATE,Dimethoate,"O,O-dimethyl S-[2-(methylamino)-2-oxoethyl] phosphorodithioate",27649,DTXSID7020479,CNC(=O)CSP(=S)(OC)OC,"InChI=1S/C5H12NO3PS2/c1-6-5(7)4-12-10(11,8-2)9-3/h4H2,1-3H3,(H,6,7)",MCWXGJITAZMZEV-UHFFFAOYSA-N,?,,52.0,100262
100263,60-56-0,60-56-0,CN1C=CNC1=S,METHIMAZOLE,Methimazole,"1-methyl-1,3-dihydro-2H-imidazole-2-thione",27650,DTXSID4020820,CN1C=CNC1=S,"InChI=1S/C4H6N2S/c1-6-3-2-5-4(6)7/h2-3H,1H3,(H,5,7)",PMRYVIKBURPHAH-UHFFFAOYSA-N,?,,146.0,100263
100265,60-70-8,NOCAS_871534,Cc1c(ccc2[C@@H]3CC=C4C[C@@H](O)CC[C@]4(C)[C@H]3Cc12)[C@H](C)[C@@H]1NC[C@@H](C)C[C@H]1O,Veratramine,,,27652,DTXSID40871534,Cc1c(ccc2C3CC=C4CC(O)CCC4(C)C3Cc12)C(C)C1NCC(C)CC1O,"InChI=1S/C27H39NO2/c1-15-11-25(30)26(28-14-15)17(3)20-7-8-21-22-6-5-18-12-19(29)9-10-27(18,4)24(22)13-23(21)16(20)2/h5,7-8,15,17,19,22,24-26,28-30H,6,9-14H2,1-4H3",MALFODICFSIXPO-UHFFFAOYSA-N,?,,206.0,100265
100266,60-79-7,60-79-7,C[C@@H](CO)NC(=O)[C@H]1CN(C)[C@@H]2Cc3c[nH]c4cccc(c34)C2=C1,Ergonovine,Ergonovine,"(8beta)-N-[(2S)-1-hydroxypropan-2-yl]-6-methyl-9,10-didehydroergoline-8-carboxamide",27653,DTXSID8046323,CC(CO)NC(=O)C1CN(C)C2Cc3c[nH]c4cccc(c34)C2=C1,"InChI=1S/C19H23N3O2/c1-11(10-23)21-19(24)13-6-15-14-4-3-5-16-18(14)12(8-20-16)7-17(15)22(2)9-13/h3-6,8,11,13,17,20,23H,7,9-10H2,1-2H3,(H,21,24)",WVVSZNPYNCNODU-UHFFFAOYSA-N,?,,162.0,100266
100267,60-80-0,60-80-0,CN1C(C)=CC(=O)N1c1ccccc1,ANTIPYRINE,Phenazone,"1,5-dimethyl-2-phenyl-1,2-dihydro-3H-pyrazol-3-one",27654,DTXSID6021117,CN1C(C)=CC(=O)N1c1ccccc1,"InChI=1S/C11H12N2O/c1-9-8-11(14)13(12(9)2)10-6-4-3-5-7-10/h3-8H,1-2H3",VEQOALNAAJBPNY-UHFFFAOYSA-N,?,,114.0,100267
100269,60-87-7,60-87-7,CN(C)C(C)CN1c2ccccc2Sc2ccccc12,PROMETHAZINE,Promethazine,"N,N-dimethyl-1-(10H-phenothiazin-10-yl)propan-2-amine",27656,DTXSID7023518,CN(C)C(C)CN1c2ccccc2Sc2ccccc12,"InChI=1S/C17H20N2S/c1-13(18(2)3)12-19-14-8-4-6-10-16(14)20-17-11-7-5-9-15(17)19/h4-11,13H,12H2,1-3H3",PWWVAXIEGOYWEE-UHFFFAOYSA-N,?,,60.0,100269
100270,60-92-4,60-92-4,Nc1[n]c[n]c2c1[n]c[n]2[C@@H]1O[C@@H]2COP(O)(=O)O[C@H]2[C@H]1O,Cyclic AMP,cAMP,"(4aR,6R,7R,7aS)-6-(6-amino-9H-purin-9-yl)tetrahydro-4H-furo[3,2-d][1,3,2]dioxaphosphinine-2,7-diol 2-oxide",27657,DTXSID8040436,Nc1[n]c[n]c2c1[n]c[n]2C1OC2COP(O)(=O)OC2C1O,"InChI=1S/C10H12N5O6P/c11-8-5-9(13-2-12-8)15(3-14-5)10-6(16)7-4(20-10)1-19-22(17,18)21-7/h2-4,6-7,10,16H,1H2,(H,17,18)(H2,11,12,13)",IVOMOUWHDPKRLL-UHFFFAOYSA-N,?,,219.5,100270
100271,61-01-8,61-01-8,CN(C)CCCN1c2cc(ccc2Sc2ccccc12)OC,METHOXYPROMAZINE,Methoxypromazine,"3-(2-methoxyphenothiazin-10-yl)-N,N-dimethylpropan-1-amine",27658,DTXSID90209843,CN(C)CCCN1c2cc(ccc2Sc2ccccc12)OC,"InChI=1S/C18H22N2OS/c1-19(2)11-6-12-20-15-7-4-5-8-17(15)22-18-10-9-14(21-3)13-16(18)20/h4-5,7-10,13H,6,11-12H2,1-3H3",BRABPYPSZVCCLR-UHFFFAOYSA-N,?,,46.0,100271
100274,61-50-7,61-50-7,CN(C)CCc1c[nH]c2ccccc12,"N,N-DIMETHYLTRYPTAMINE","N,N-Dimethyltryptamine","2-(1H-indol-3-yl)-N,N-dimethylethanamine",27660,DTXSID60110053,CN(C)CCc1c[nH]c2ccccc12,"InChI=1S/C12H16N2/c1-14(2)8-7-10-9-13-12-6-4-3-5-11(10)12/h3-6,9,13H,7-8H2,1-2H3",DMULVCHRPCFFGV-UHFFFAOYSA-N,?,,46.0,100274
100275,61-54-1,61-54-1,NCCc1c[nH]c2ccccc21,TRYPTAMINE,Tryptamine,2-(1H-INDOL-3-YL)ETHANAMINE,27661,DTXSID2075340,NCCc1c[nH]c2ccccc21,"InChI=1S/C10H12N2/c11-6-5-8-7-12-10-4-2-1-3-9(8)10/h1-4,7,12H,5-6,11H2",APJYDQYYACXCRM-UHFFFAOYSA-N,?,,118.0,100275
100276,61-56-3,61-56-3,NS(=O)(=O)c1ccc(cc1)N1CCCCS1(=O)=O,Sulthiame,Sulthiame,"4-(1,1-dioxido-1,2-thiazinan-2-yl)benzenesulfonamide",27662,DTXSID4023626,NS(=O)(=O)c1ccc(cc1)N1CCCCS1(=O)=O,"InChI=1S/C10H14N2O4S2/c11-18(15,16)10-5-3-9(4-6-10)12-7-1-2-8-17(12,13)14/h3-6H,1-2,7-8H2,(H2,11,15,16)",HMHVCUVYZFYAJI-UHFFFAOYSA-N,?,,181.0,100276
100278,61-68-7,61-68-7,Cc1cccc(Nc2ccccc2C(O)=O)c1C,MEFENAMIC ACID,Mefenamic acid,"2-[(2,3-dimethylphenyl)amino]benzoic acid",27664,DTXSID5023243,Cc1cccc(Nc2ccccc2C(O)=O)c1C,"InChI=1S/C15H15NO2/c1-10-6-5-9-13(11(10)2)16-14-8-4-3-7-12(14)15(17)18/h3-9,16H,1-2H3,(H,17,18)",HYYBABOKPJLUIN-UHFFFAOYSA-N,?,,230.5,100278
100280,61-76-7,61-76-7,Cl.CNC[C@H](O)c1cc(O)ccc1,PHENYLEPHRINE HCL,Phenylephrine hydrochloride,3-[(1R)-1-hydroxy-2-(methylamino)ethyl]phenol hydrochloride (1:1),27665,DTXSID3021142,CNCC(O)c1cc(O)ccc1,"InChI=1S/C9H13NO2/c1-10-6-9(12)7-3-2-4-8(11)5-7/h2-5,9-12H,6H2,1H3",SONNWYBIRXJNDC-UHFFFAOYSA-N,Cl,18179,142.5,100280
100281,61-78-9,61-78-9,Nc1ccc(cc1)C(=O)NCC(O)=O,"GLYCINE, N-(4-AMINOBENZOYL)-",Aminohippuric acid,N-(4-aminobenzoyl)glycine,27666,DTXSID7022590,Nc1ccc(cc1)C(=O)NCC(O)=O,"InChI=1S/C9H10N2O3/c10-7-3-1-6(2-4-7)9(14)11-5-8(12)13/h1-4H,5,10H2,(H,11,14)(H,12,13)",HSMNQINEKMPTIC-UHFFFAOYSA-N,?,,198.5,100281
100283,61-82-5,61-82-5,Nc1[n]c[nH][n]1,AMITROLE,Amitrole,"1H-1,2,4-triazol-3-amine",27668,DTXSID0020076,Nc1[n]c[nH][n]1,"InChI=1S/C2H4N4/c3-2-4-1-5-6-2/h1H,(H3,3,4,5,6)",KLSJWNVTNUYHDU-UHFFFAOYSA-N,?,,159.0,100283
100284,61-90-5|328-38-1|328-39-2,61-90-5|328-38-1,CC(C)C[C@H](N)C(O)=O,"LEUCINE, D-Leucine",Leucine,L-leucine,27669|30163|30164,DTXSID9023203|DTXSID6046347,CC(C)CC(N)C(O)=O,"InChI=1S/C6H13NO2/c1-4(2)3-5(7)6(8)9/h4-5H,3,7H2,1-2H3,(H,8,9)",ROHFNLRQFUQHCH-UHFFFAOYSA-N,?,,293.0,100284
100287,62-23-7,62-23-7,[O-][N+](=O)c1ccc(cc1)C(O)=O,P-NITROBENZOIC ACID,4-Nitrobenzoic acid,4-nitrobenzoic acid,27670,DTXSID3020966,[O-][N+](=O)c1ccc(cc1)C(O)=O,"InChI=1S/C7H5NO4/c9-7(10)5-1-3-6(4-2-5)8(11)12/h1-4H,(H,9,10)",OTLNPYWUJOZPPA-UHFFFAOYSA-N,?,,242.0,100287
100291,62-44-2,62-44-2,CC(=O)Nc1ccc(cc1)OCC,P-PHENACETIN,Phenacetin,N-(4-ethoxyphenyl)acetamide,27672,DTXSID1021116,CC(=O)Nc1ccc(cc1)OCC,"InChI=1S/C10H13NO2/c1-3-13-10-6-4-9(5-7-10)11-8(2)12/h4-7H,3H2,1-2H3,(H,11,12)",CPJSUEIXXCENMM-UHFFFAOYSA-N,?,,137.5,100291
100292,62-46-4,1077-28-7,OC(=O)CCCCC1CCSS1,"1,2-DITHIOLANE-3-PENTANOIC ACID",alpha-Lipoic acid,"5-(1,2-dithiolan-3-yl)pentanoic acid",27673,DTXSID7025508,OC(=O)CCCCC1CCSS1,"InChI=1S/C8H14O2S2/c9-8(10)4-2-1-3-7-5-6-11-12-7/h7H,1-6H2,(H,9,10)",AGBQKNBQESQNJD-UHFFFAOYSA-N,?,,60.5,100292
100294,62-53-3,62-53-3,Nc1ccccc1,ANILINE,Aniline,aniline,27674,DTXSID8020090,Nc1ccccc1,"InChI=1S/C6H7N/c7-6-4-2-1-3-5-6/h1-5H,7H2",PAYRUJLWNCNPSJ-UHFFFAOYSA-N,?,,-6.0,100294
100296,62-56-6,62-56-6,NC(N)=S,THIOUREA,Thiourea,thiourea,27676,DTXSID9021348,NC(N)=S,"InChI=1S/CH4N2S/c2-1(3)4/h(H4,2,3,4)",UMGDCJDMYOKAJW-UHFFFAOYSA-N,?,,182.0,100296
100297,62-57-7,62-57-7,CC(C)(N)C(O)=O,"Alanine, 2-methyl-","Alanine, 2-methyl-",2-Amino-2-methylpropanoic acid,27677,DTXSID0058772,CC(C)(N)C(O)=O,"InChI=1S/C4H9NO2/c1-4(2,5)3(6)7/h5H2,1-2H3,(H,6,7)",FUOOLUPWFVMBKG-UHFFFAOYSA-N,?,,335.0,100297
100298,62-67-9,62-67-9,C=CCN1CC[C@@]23[C@H]4Oc5c2c(C[C@@H]1[C@@H]3C=C[C@@H]4O)ccc5O,NALORPHINE,Nalorphine,"(5alpha,6alpha)-17-(prop-2-en-1-yl)-7,8-didehydro-4,5-epoxymorphinan-3,6-diol",27678,DTXSID3023348,C=CCN1CCC23C4Oc5c2c(CC1C3C=CC4O)ccc5O,"InChI=1S/C19H21NO3/c1-2-8-20-9-7-19-12-4-6-15(22)18(19)23-17-14(21)5-3-11(16(17)19)10-13(12)20/h2-6,12-13,15,18,21-22H,1,7-10H2",UIQMVEYFGZJHCZ-UHFFFAOYSA-N,?,,208.5,100298
100300,62-74-8,62-74-8,[Na+].[O-]C(=O)CF,"FLUOROACETIC ACID, SODIUM SALT",Sodium fluoroacetate,sodium fluoroacetate,27680,DTXSID8024311,OC(=O)CF,"InChI=1S/C2H3FO2/c3-1-2(4)5/h1H2,(H,4,5)",QEWYKACRFQMRMB-UHFFFAOYSA-N,[Na+],211,201.0,100300
100301,62-90-8,62-90-8,C[C@]12CC[C@@H]3[C@H]4CCC(=O)C=C4CC[C@H]3[C@@H]1CC[C@@H]2OC(=O)CCc1ccccc1,Nandrolone Phenpropionate [USAN],Nandrolone phenpropionate,(17beta)-3-oxoestr-4-en-17-yl 3-phenylpropanoate,27681,DTXSID2023353,CC12CCC3C4CCC(=O)C=C4CCC3C1CCC2OC(=O)CCc1ccccc1,"InChI=1S/C27H34O3/c1-27-16-15-22-21-11-9-20(28)17-19(21)8-10-23(22)24(27)12-13-25(27)30-26(29)14-7-18-5-3-2-4-6-18/h2-6,17,21-25H,7-16H2,1H3",UBWXUGDQUBIEIZ-UHFFFAOYSA-N,?,,95.5,100301
100303,63-05-8,63-05-8,C[C@]12CCC(=O)C=C1CC[C@@H]1[C@@H]2CC[C@@]2(C)[C@H]1CCC2=O,ANDROSTENEDIONE,"4-Androstene-3,17-dione","androst-4-ene-3,17-dione",27682,DTXSID8024523,CC12CCC(=O)C=C1CCC1C2CCC2(C)C1CCC2=O,"InChI=1S/C19H26O2/c1-18-9-7-13(20)11-12(18)3-4-14-15-5-6-17(21)19(15,2)10-8-16(14)18/h11,14-16H,3-10H2,1-2H3",AEMFNILZOJDQLW-UHFFFAOYSA-N,?,,158.0,100303
100305,63-25-2,63-25-2,CNC(=O)Oc1cccc2ccccc21,1-NAPHTHYL-N-METHYLCARBAMATE,Carbaryl,naphthalen-1-yl methylcarbamate,27684,DTXSID9020247,CNC(=O)Oc1cccc2ccccc21,"InChI=1S/C12H11NO2/c1-13-12(14)15-11-8-4-6-9-5-2-3-7-10(9)11/h2-8H,1H3,(H,13,14)",CVXBEEMKQHEXEN-UHFFFAOYSA-N,?,,145.0,100305
100306,63-37-6,7075-11-8,NC1C=CN([C@@H]2O[C@H](COP(O)(O)=O)[C@@H](O)[C@@H]2O)C(=O)N=1,Cytidine monophosphate,Ara-5'-CMP,"[(2R,3S,4S,5R)-5-(4-amino-2-oxopyrimidin-1-yl)-3,4-dihydroxyoxolan-2-yl]methyl dihydrogen phosphate",27685,DTXSID60221012,NC1C=CN(C2OC(COP(O)(O)=O)C(O)C2O)C(=O)N=1,"InChI=1S/C9H14N3O8P/c10-5-1-2-12(9(15)11-5)8-7(14)6(13)4(20-8)3-19-21(16,17)18/h1-2,4,6-8,13-14H,3H2,(H2,10,11,15)(H2,16,17,18)",IERHLVCPSMICTF-UHFFFAOYSA-N,?,,233.0,100306
100309,63-56-9,63-56-9,Cl.CN(C)CCN(Cc1ccc(cc1)OC)c1[n]ccc[n]1,Thonzylamine Hydrochloride,Thonzylamine hydrochloride,"N-(4-methoxybenzyl)-N',N'-dimethyl-N-(pyrimidin-2-yl)ethane-1,2-diamine hydrochloride (1:1)",27686,DTXSID8026147,CN(C)CCN(Cc1ccc(cc1)OC)c1[n]ccc[n]1,"InChI=1S/C16H22N4O/c1-19(2)11-12-20(16-17-9-4-10-18-16)13-14-5-7-15(21-3)8-6-14/h4-10H,11-13H2,1-3H3",GULNIHOSWFYMRN-UHFFFAOYSA-N,Cl,18179,174.5,100309
100311,63-89-8,63-89-8,C[N+](C)(C)CCOP([O-])(=O)OC[C@@H](COC(=O)CCCCCCCCCCCCCCC)OC(=O)CCCCCCCCCCCCCCC,Colfosceril Palmitate,Colfosceril palmitate,"(2R)-2,3-bis(hexadecanoyloxy)propyl 2-(trimethylammonio)ethyl phosphate",27688,DTXSID5046720,C[N+](C)(C)CCOP(O)(=O)OCC(COC(=O)CCCCCCCCCCCCCCC)OC(=O)CCCCCCCCCCCCCCC,"InChI=1S/C40H80NO8P/c1-6-8-10-12-14-16-18-20-22-24-26-28-30-32-39(42)46-36-38(37-48-50(44,45)47-35-34-41(3,4)5)49-40(43)33-31-29-27-25-23-21-19-17-15-13-11-9-7-2/h38H,6-37H2,1-5H3/p+1",KILNVBDSWZSGLL-UHFFFAOYSA-O,?,,234.0,100311
100313,63-98-9,63-98-9,NC(=O)NC(=O)Cc1ccccc1,PHENACEMIDE,Phenacemide,N-carbamoyl-2-phenylacetamide,27689,DTXSID6023442,NC(=O)NC(=O)Cc1ccccc1,"InChI=1S/C9H10N2O2/c10-9(13)11-8(12)6-7-4-2-1-3-5-7/h1-5H,6H2,(H3,10,11,12,13)",XPFRXWCVYUEORT-UHFFFAOYSA-N,?,,215.0,100313
100315,64-04-0,64-04-0,NCCc1ccccc1,2-PHENYLETHYLAMINE,Phenethylamine,2-phenylethanamine,27691,DTXSID5058773,NCCc1ccccc1,"InChI=1S/C8H11N/c9-7-6-8-4-2-1-3-5-8/h1-5H,6-7,9H2",BHHGXPLMPWCGHP-UHFFFAOYSA-N,?,,-60.0,100315
100316,64-10-8,64-10-8,NC(=O)Nc1ccccc1,PHENYLUREA,1-Phenylurea,C7H8N2O,27692,DTXSID8042507,NC(=O)Nc1ccccc1,"InChI=1S/C7H8N2O/c8-7(10)9-6-4-2-1-3-5-6/h1-5H,(H3,8,9,10)",LUBJCRLGQSPQNN-UHFFFAOYSA-N,?,,147.0,100316
100317,64-17-5,64-17-5,CCO,ETHANOL,Ethanol,ethanol,27693,DTXSID9020584,CCO,"InChI=1S/C2H6O/c1-2-3/h3H,2H2,1H3",LFQSCWFLJHTTHZ-UHFFFAOYSA-N,?,,-114.1,100317
100319,64-19-7,64-19-7,CC(O)=O,ACETIC ACID,Acetic acid,acetic acid,27695,DTXSID5024394,CC(O)=O,"InChI=1S/C2H4O2/c1-2(3)4/h1H3,(H,3,4)",QTBSBXVTEAMEQO-UHFFFAOYSA-N,?,,16.6,100319
100321,64-55-1,64-55-1,CCC(C)C(C)(COC(N)=O)COC(N)=O,MEBUTAMATE,Mebutamate,"2-[(carbamoyloxy)methyl]-2,3-dimethylpentyl carbamate",27696,DTXSID1023239,CCC(C)C(C)(COC(N)=O)COC(N)=O,"InChI=1S/C10H20N2O4/c1-4-7(2)10(3,5-15-8(11)13)6-16-9(12)14/h7H,4-6H2,1-3H3,(H2,11,13)(H2,12,14)",LEROTMJVBFSIMP-UHFFFAOYSA-N,?,,77.0,100321
100322,64-65-3,64-65-3,CCC1(C)CC(=O)NC(=O)C1,"2,6-Piperidinedione, 4-ethyl-4-methyl-",Bemegride,"4-ethyl-4-methylpiperidine-2,6-dione",27697,DTXSID0045250,CCC1(C)CC(=O)NC(=O)C1,"InChI=1S/C8H13NO2/c1-3-8(2)4-6(10)9-7(11)5-8/h3-5H2,1-2H3,(H,9,10,11)",ORRZGUBHBVWWOP-UHFFFAOYSA-N,?,,126.5,100322
100324,64-69-7,64-69-7,OC(=O)CI,"Acetic acid, iodo-",Iodoacetic acid,iodoacetic acid,27699,DTXSID5025445,OC(=O)CI,"InChI=1S/C2H3IO2/c3-1-2(4)5/h1H2,(H,4,5)",JDNTWHVOXJZDSN-UHFFFAOYSA-N,?,,82.5,100324
100325,64-75-5,64-75-5,Cl.C[C@]1(O)[C@H]2C[C@H]3[C@@H](C(O)=C(C(N)=O)C(=O)[C@@]3(O)C(O)=C2C(=O)c2c1cccc2O)N(C)C,Tetracycline hydrochloride [JAN],Tetracycline hydrochloride,"(4S,4aS,5aS,6S,12aS)-4-(dimethylamino)-3,6,10,12,12a-pentahydroxy-6-methyl-1,11-dioxo-1,4,4a,5,5a,6,11,12a-octahydrotetracene-2-carboxamide hydrochloride (1:1)",27700,DTXSID6021321,CC1(O)C2CC3C(C(O)=C(C(N)=O)C(=O)C3(O)C(O)=C2C(=O)c2c1cccc2O)N(C)C,"InChI=1S/C22H24N2O8/c1-21(31)8-5-4-6-11(25)12(8)16(26)13-9(21)7-10-15(24(2)3)17(27)14(20(23)30)19(29)22(10,32)18(13)28/h4-6,9-10,15,25,27-28,31-32H,7H2,1-3H3,(H2,23,30)",OFVLGDICTFRJMM-UHFFFAOYSA-N,Cl,18179,222.5,100325
100326,64-77-7,64-77-7,Cc1ccc(cc1)S(=O)(=O)NC(=O)NCCCC,TOLBUTAMIDE,Tolbutamide,N-(butylcarbamoyl)-4-methylbenzenesulfonamide,27701,DTXSID8021359,Cc1ccc(cc1)S(=O)(=O)NC(=O)NCCCC,"InChI=1S/C12H18N2O3S/c1-3-4-9-13-12(15)14-18(16,17)11-7-5-10(2)6-8-11/h5-8H,3-4,9H2,1-2H3,(H2,13,14,15)",JLRGJRBPOGGCBT-UHFFFAOYSA-N,?,,128.5,100326
100328,64-86-8,64-86-8,CC(=O)N[C@H]1CCc2cc(OC)c(OC)c(OC)c2C2=CC=C(OC)C(=O)C=C21,COLCHICINE,Colchicine,"N-[(7S)-1,2,3,10-tetramethoxy-9-oxo-5,6,7,9-tetrahydrobenzo[a]heptalen-7-yl]acetamide",27703,DTXSID5024845,CC(=O)NC1CCc2cc(OC)c(OC)c(OC)c2C2=CC=C(OC)C(=O)C=C21,"InChI=1S/C22H25NO6/c1-12(24)23-16-8-6-13-10-19(27-3)21(28-4)22(29-5)20(13)14-7-9-18(26-2)17(25)11-15(14)16/h7,9-11,16H,6,8H2,1-5H3,(H,23,24)",IAKHMKGGTNLKSZ-UHFFFAOYSA-N,?,,156.0,100328
100329,65-22-5,65-22-5,Cl.Cc1[n]cc(CO)c(C=O)c1O,PYRIDOXAL HYDROCHLORIDE,Pyridoxal hydrochloride,,27704,DTXSID0058774,Cc1[n]cc(CO)c(C=O)c1O,"InChI=1S/C8H9NO3/c1-5-8(12)7(4-11)6(3-10)2-9-5/h2,4,10,12H,3H2,1H3",RADKZDMFGJYCBB-UHFFFAOYSA-N,Cl,18179,165.0,100329
100330,65-23-6,65-23-6,Cc1[n]cc(CO)c(CO)c1O,PYRIDOXINE,Pyridoxine,"4,5-bis(hydroxymethyl)-2-methylpyridin-3-ol",27705,DTXSID4023541,Cc1[n]cc(CO)c(CO)c1O,"InChI=1S/C8H11NO3/c1-5-8(12)7(4-11)6(3-10)2-9-5/h2,10-12H,3-4H2,1H3",LXNHXLLTXMVWPM-UHFFFAOYSA-N,?,,160.5,100330
100332,65-45-2,65-45-2,NC(=O)c1ccccc1O,O-HYDROXYBENZAMIDE,Salicylamide,2-hydroxybenzamide,27707,DTXSID3021726,NC(=O)c1ccccc1O,"InChI=1S/C7H7NO2/c8-7(10)5-3-1-2-4-6(5)9/h1-4,9H,(H2,8,10)",SKZKKFZAGNVIMN-UHFFFAOYSA-N,?,,142.0,100332
100333,65-71-4,65-71-4,CC1=CNC(=O)NC1=O,5-METHYLURACIL,Thymine,thymine,27708,DTXSID4052342,CC1=CNC(=O)NC1=O,"InChI=1S/C5H6N2O2/c1-3-2-6-5(9)7-4(3)8/h2H,1H3,(H2,6,7,8,9)",RWQNBRDOKXIBIV-UHFFFAOYSA-N,?,,316.0,100333
100334,65-82-7,1115-47-5,CC(=O)NC(CCSC)C(O)=O,"L-Methionine, N-acetyl-",N-Acetyl-methionine,N-acetylmethionine,27709,DTXSID5037022,CC(=O)NC(CCSC)C(O)=O,"InChI=1S/C7H13NO3S/c1-5(9)8-6(7(10)11)3-4-12-2/h6H,3-4H2,1-2H3,(H,8,9)(H,10,11)",XUYPXLNMDZIRQH-UHFFFAOYSA-N,?,,105.5,100334
100336,65-86-1,65-86-1,Oc1[n]c(cc(O)[n]1)C(O)=O,OROTIC ACID,Orotic acid,"2,6-dihydroxypyrimidine-4-carboxylic acid",27711,DTXSID0025814,Oc1[n]c(cc(O)[n]1)C(O)=O,"InChI=1S/C5H4N2O4/c8-3-1-2(4(9)10)6-5(11)7-3/h1H,(H,9,10)(H2,6,7,8,11)",PXQPEWDEAKTCGB-UHFFFAOYSA-N,?,,345.5,100336
100337,66-22-8,66-22-8,O=C1C=CNC(=O)N1,URACIL,Uracil,"pyrimidine-2,4(1H,3H)-dione",27712,DTXSID4021424,O=C1C=CNC(=O)N1,"InChI=1S/C4H4N2O2/c7-3-1-2-5-4(8)6-3/h1-2H,(H2,5,6,7,8)",ISAKRJDGNUQOIC-UHFFFAOYSA-N,?,,338.0,100337
100339,66-25-1,66-25-1,CCCCCC=O,HEXANAL,Hexanal,hexanal,27713,DTXSID2021604,CCCCCC=O,"InChI=1S/C6H12O/c1-2-3-4-5-6-7/h6H,2-5H2,1H3",JARKCYVAAOWBJS-UHFFFAOYSA-N,?,,-56.0,100339