ChemID,source_casrn,CAS,SMILES,NAME,preferred_name,iupac,MPID,dsstox_substance_id,Canonical_QSARr,InChI_Code_QSARr,InChI Key_QSARr,Salt_Solvent,Salt_Solvent_ID,MP,ID
107758,5786-21-0,5786-21-0,CN1CCN(CC1)C1=Nc2cc(Cl)ccc2Nc2ccccc21,CLOZAPINE,Clozapine,"8-chloro-11-(4-methylpiperazin-1-yl)-5H-dibenzo[b,e][1,4]diazepine",34462,DTXSID5022855,CN1CCN(CC1)C1=Nc2cc(Cl)ccc2Nc2ccccc21,"InChI=1S/C18H19ClN4/c1-22-8-10-23(11-9-22)18-14-4-2-3-5-15(14)20-16-7-6-13(19)12-17(16)21-18/h2-7,12,20H,8-11H2,1H3",QZUDBNBUXVUHMW-UHFFFAOYSA-N,?,,183.5,107758
107763,5802-82-4,5802-82-4,CCCCCCCCCCCCCCCCCCCCCCCCCC(=O)OC,METHYL HEXACOSANOATE,Methyl hexacosanoate,METHYL HEXACOSANOATE,34467,DTXSID80206745,CCCCCCCCCCCCCCCCCCCCCCCCCC(=O)OC,"InChI=1S/C27H54O2/c1-3-4-5-6-7-8-9-10-11-12-13-14-15-16-17-18-19-20-21-22-23-24-25-26-27(28)29-2/h3-26H2,1-2H3",VHUJBYYFFWDLNM-UHFFFAOYSA-N,?,,63.8,107763
107767,5814-05-1,5814-05-1,NNC(=O)c1ccccc1Cl,"BENZOYLHYDRAZINE, O-CHLORO",2-Chlorobenzohydrazide,2-Chlorobenzohydrazide,34471,DTXSID40206882,NNC(=O)c1ccccc1Cl,"InChI=1S/C7H7ClN2O/c8-6-4-2-1-3-5(6)7(11)10-9/h1-4H,9H2,(H,10,11)",KPPNLSKVTKSSTG-UHFFFAOYSA-N,?,,119.0,107767
107772,5836-29-3,5836-29-3,OC1=C(C2CCCc3ccccc32)C(=O)Oc2ccccc21,Endrocide (Endox) (Coumatetralyl),Coumatetralyl,"4-hydroxy-3-(1,2,3,4-tetrahydronaphthalen-1-yl)-2H-chromen-2-one",34475,DTXSID8041799,OC1=C(C2CCCc3ccccc32)C(=O)Oc2ccccc21,"InChI=1S/C19H16O3/c20-18-15-9-3-4-11-16(15)22-19(21)17(18)14-10-5-7-12-6-1-2-8-13(12)14/h1-4,6,8-9,11,14,20H,5,7,10H2",ULSLJYXHZDTLQK-UHFFFAOYSA-N,?,,172.0,107772
107776,5870-93-9,5870-93-9,CCCCCCCOC(=O)CCC,"Butanoic acid, heptyl ester",Heptyl butanoate,heptyl butanoate,34479,DTXSID0042038,CCCCCCCOC(=O)CCC,"InChI=1S/C11H22O2/c1-3-5-6-7-8-10-13-11(12)9-4-2/h3-10H2,1-2H3",JPQHLIYIQARLQM-UHFFFAOYSA-N,?,,-57.5,107776
107781,5902-51-2,5902-51-2,CC1NC(=O)N(C(=O)C=1Cl)C(C)(C)C,TERBACIL,Terbacil,"3-tert-butyl-5-chloro-6-methylpyrimidine-2,4(1H,3H)-dione",34483,DTXSID8024317,CC1NC(=O)N(C(=O)C=1Cl)C(C)(C)C,"InChI=1S/C9H13ClN2O2/c1-5-6(10)7(13)12(8(14)11-5)9(2,3)4/h1-4H3,(H,11,14)",NBQCNZYJJMBDKY-UHFFFAOYSA-N,?,,176.0,107781
107785,5915-41-3,5915-41-3,CCNc1[n]c(Cl)[n]c(NC(C)(C)C)[n]1,TERBUTHYLAZINE,Terbuthylazine,"N-tert-butyl-6-chloro-N'-ethyl-1,3,5-triazine-2,4-diamine",34487,DTXSID4027608,CCNc1[n]c(Cl)[n]c(NC(C)(C)C)[n]1,"InChI=1S/C9H16ClN5/c1-5-11-7-12-6(10)13-8(14-7)15-9(2,3)4/h5H2,1-4H3,(H2,11,12,13,14,15)",FZXISNSWEXTPMF-UHFFFAOYSA-N,?,,178.0,107785
107790,5934-14-5,NOCAS_863657,Nc1ccc(cc1)S(=O)(=O)c1ccc(cc1)NC(=O)CCC(O)=O,Succisulfone,,,34492,DTXSID00863657,Nc1ccc(cc1)S(=O)(=O)c1ccc(cc1)NC(=O)CCC(O)=O,"InChI=1S/C16H16N2O5S/c17-11-1-5-13(6-2-11)24(22,23)14-7-3-12(4-8-14)18-15(19)9-10-16(20)21/h1-8H,9-10,17H2,(H,18,19)(H,20,21)",QAJQUUOBVOKLOD-UHFFFAOYSA-N,?,,157.0,107790
107796,5977-10-6,NOCAS_863668,CCC(C(O)=O)C1(O)CCC(CC1)c1ccccc1,Fencibutirol,,,34496,DTXSID10863668,CCC(C(O)=O)C1(O)CCC(CC1)c1ccccc1,"InChI=1S/C16H22O3/c1-2-14(15(17)18)16(19)10-8-13(9-11-16)12-6-4-3-5-7-12/h3-7,13-14,19H,2,8-11H2,1H3,(H,17,18)",HPLFQKUIHGZHPH-UHFFFAOYSA-N,?,,157.0,107796
107802,6006-95-7,6006-95-7,CCCCCCCCCCCCCCCC1CCCCC1,N-PENTADECYLCYCLOHEXANE,"Cyclohexane, pentadecyl-",Pentadecylcyclohexane,34502,DTXSID1064081,CCCCCCCCCCCCCCCC1CCCCC1,"InChI=1S/C21H42/c1-2-3-4-5-6-7-8-9-10-11-12-13-15-18-21-19-16-14-17-20-21/h21H,2-20H2,1H3",ZNUABQHWFGTOCO-UHFFFAOYSA-N,?,,29.0,107802
107809,6050-13-1,6050-13-1,O=C1OC(=O)c2ccccc2-c2ccccc12,"Dibenz c,e oxepin-5,7-dione","Dibenz[c,e]oxepin-5,7-dione","benzo[d][2]benzoxepine-5,7-dione",34508,DTXSID0064094,O=C1OC(=O)c2ccccc2-c2ccccc12,InChI=1S/C14H8O3/c15-13-11-7-3-1-5-9(11)10-6-2-4-8-12(10)14(16)17-13/h1-8H,RTSGJTANVBJFFJ-UHFFFAOYSA-N,?,,217.0,107809
107815,6085-94-5,6085-94-5,C(c1ccccc1)[n]1c[n]c[n]1,"1H-1,2,4-TRIAZOLE, 1-(PHENYLMETHYL)-","1H-1,2,4-Triazole, 1-benzyl-","1-(phenylmethyl)-1,2,4-triazole",34513,DTXSID00209692,C(c1ccccc1)[n]1c[n]c[n]1,"InChI=1S/C9H9N3/c1-2-4-9(5-3-1)6-12-8-10-7-11-12/h1-5,7-8H,6H2",BNWQEHYYXTVKOF-UHFFFAOYSA-N,?,,49.0,107815
107820,6111-78-0,6111-78-0,Cc1cccc2cc3ccc4ccccc4c3cc21,11-Methylbenz(a)anthracene,11-Methylbenzanthracene,11-methylbenzo[b]phenanthrene,34517,DTXSID20210003,Cc1cccc2cc3ccc4ccccc4c3cc21,"InChI=1S/C19H14/c1-13-5-4-7-15-11-16-10-9-14-6-2-3-8-17(14)19(16)12-18(13)15/h2-12H,1H3",ARHCZXQENFEAFA-UHFFFAOYSA-N,?,,118.0,107820
107826,6136-68-1,6136-68-1,CC(=O)c1cc(ccc1)C#N,M-CYANOACETOPHENONE,3-Acetylbenzonitrile,3-Acetylbenzonitrile,34522,DTXSID50210273,CC(=O)c1cc(ccc1)C#N,"InChI=1S/C9H7NO/c1-7(11)9-4-2-3-8(5-9)6-10/h2-5H,1H3",SBCFGFDAZCTSRH-UHFFFAOYSA-N,?,,99.0,107826
107832,6161-50-8,6161-50-8,COc1cc(ccc1)-c1cc(ccc1)OC,"1,1'-BIPHENYL, 3,3'-DIMETHOXY-","3,3'-Dimethoxy-1,1'-biphenyl",1-methoxy-3-(3-methoxyphenyl)benzene,34526,DTXSID40210626,COc1cc(ccc1)-c1cc(ccc1)OC,"InChI=1S/C14H14O2/c1-15-13-7-3-5-11(9-13)12-6-4-8-14(10-12)16-2/h3-10H,1-2H3",UCHNVSDXSPIKRG-UHFFFAOYSA-N,?,,36.0,107832
107837,6175-23-1,6175-23-1,CC(=O)CC(=O)CCCCC,"Nonane-2,4-dione","Nonane-2,4-dione","Nonane-2,4-dione",34530,DTXSID50210753,CC(=O)CC(=O)CCCCC,"InChI=1S/C9H16O2/c1-3-4-5-6-9(11)7-8(2)10/h3-7H2,1-2H3",KFBXUKHERGLHLG-UHFFFAOYSA-N,?,,-18.0,107837
107842,6214-20-6,6214-20-6,COS(=O)(=O)c1ccc(cc1)[N+]([O-])=O,Methyl p-Nitrobenzenesulfonate,"Benzenesulfonic acid, 4-nitro-, methyl ester",methyl 4-nitrobenzenesulfonate,34534,DTXSID9064138,COS(=O)(=O)c1ccc(cc1)[N+]([O-])=O,"InChI=1S/C7H7NO5S/c1-13-14(11,12)7-4-2-6(3-5-7)8(9)10/h2-5H,1H3",RMNJNEUWTBBZPT-UHFFFAOYSA-N,?,,94.0,107842
107848,6236-05-1,6236-05-1,[O-][N+](=O)c1ccc(C=NO)o1,NIFUROXIME,Nifuroxime,N-hydroxy-1-(5-nitrofuran-2-yl)methanimine,34539,DTXSID8046402,[O-][N+](=O)c1ccc(CN=O)o1,"InChI=1S/C5H4N2O4/c8-6-3-4-1-2-5(11-4)7(9)10/h1-2H,3H2",YPLKHPGELUGWCJ-UHFFFAOYSA-N,?,,163.0,107848
107852,6274-12-0,6274-12-0,Br.CCNCC,"DIETHYLAMINE, HYDROBROMIDE",,,34543,DTXSID80878709,CCNCC,"InChI=1S/C4H11N/c1-3-5-4-2/h5H,3-4H2,1-2H3",HPNMFZURTQLUMO-UHFFFAOYSA-N,Br,1731.0,219.0,107852
107856,6283-25-6,6283-25-6,Nc1cc(ccc1Cl)[N+]([O-])=O,2-Chloro-5-nitroaniline,2-Chloro-5-nitroaniline,2-chloro-5-nitroaniline,34547,DTXSID6038827,Nc1cc(ccc1Cl)[N+]([O-])=O,"InChI=1S/C6H5ClN2O2/c7-5-2-1-4(9(10)11)3-6(5)8/h1-3H,8H2",KWIXNFOTNVKIGM-UHFFFAOYSA-N,?,,121.0,107856
107861,6294-89-9,6294-89-9,COC(=O)NN,"Hydrazinecarboxylic acid, methyl ester",Methyl carbazate,methyl hydrazinecarboxylate,34552,DTXSID3020835,COC(=O)NN,"InChI=1S/C2H6N2O2/c1-6-2(5)4-3/h3H2,1H3,(H,4,5)",WFJRIDQGVSJLLH-UHFFFAOYSA-N,?,,73.0,107861
107865,6310-09-4,6310-09-4,CC(=O)c1ccc(Cl)[s]1,1-(5-Chloro-thiophen-2-yl)-ethanone,"Ketone, 5-chloro-2-thienyl methyl",1-(5-chlorothiophen-2-yl)ethanone,34556,DTXSID70212436,CC(=O)c1ccc(Cl)[s]1,"InChI=1S/C6H5ClOS/c1-4(8)5-2-3-6(7)9-5/h2-3H,1H3",HTZGPEHWQCRXGZ-UHFFFAOYSA-N,?,,52.0,107865
107869,6320-40-7,6320-40-7,Cc1c(Br)cc(Br)cc1Br,"2,4,6-Tribromotoluene","2,4,6-Tribromotoluene","1,3,5-tribromo-2-methylbenzene",34560,DTXSID60212566,Cc1c(Br)cc(Br)cc1Br,"InChI=1S/C7H5Br3/c1-4-6(9)2-5(8)3-7(4)10/h2-3H,1H3",BFRIZWKDNUHPHL-UHFFFAOYSA-N,?,,70.0,107869
107874,6344-72-5,6344-72-5,Cc1cc2[n]cc[n]c2cc1,"QUINOXALINE, 6-METHYL-",6-Methylquinoxaline,C9H8N2,34564,DTXSID00287490,Cc1cc2[n]cc[n]c2cc1,"InChI=1S/C9H8N2/c1-7-2-3-8-9(6-7)11-5-4-10-8/h2-6H,1H3",OSRARURJYPOUOV-UHFFFAOYSA-N,?,,218.5,107874
107880,6373-73-5,6373-73-5,Nc1ccc(cc1)Nc1ccc(cc1[N+]([O-])=O)[N+]([O-])=O,"N-(2,4-DINITROPHENYL)-1,4-BENZENEDIAMINE","1,4-Benzenediamine, N-(2,4-dinitrophenyl)-","N-(2,4-Dinitrophenyl)benzene-1,4-diamine",34568,DTXSID2064288,Nc1ccc(cc1)Nc1ccc(cc1[N+]([O-])=O)[N+]([O-])=O,"InChI=1S/C12H10N4O4/c13-8-1-3-9(4-2-8)14-11-6-5-10(15(17)18)7-12(11)16(19)20/h1-7,14H,13H2",JMDHCJDATBJFJS-UHFFFAOYSA-N,?,,188.0,107880
107884,6380-21-8,NOCAS_871163,CC=Cc1ccccc1O,2-Propenyl-phenol,,,34572,DTXSID70871163,CC=Cc1ccccc1O,"InChI=1S/C9H10O/c1-2-5-8-6-3-4-7-9(8)10/h2-7,10H,1H3/b5-2+",WHGXZPQWZJUGEP-GORDUTHDSA-N,?,,-6.0,107884
107889,6388-47-2,6388-47-2,Nc1c(Cl)cccc1C(O)=O,2-Amino-3-chlorobenzoic Acid,2-Amino-3-chlorobenzoic acid,2-Amino-3-chlorobenzoic acid,34576,DTXSID00213395,Nc1c(Cl)cccc1C(O)=O,"InChI=1S/C7H6ClNO2/c8-5-3-1-2-4(6(5)9)7(10)11/h1-3H,9H2,(H,10,11)",LWUAMROXVQLJKA-UHFFFAOYSA-N,?,,190.0,107889
107899,6536-18-1,NOCAS_863901,CN1C(C)=C(CN2CCOC(C2C)c2ccccc2)C(=O)N1c1ccccc1,Morazone,,,34584,DTXSID10863901,CN1C(C)=C(CN2CCOC(C2C)c2ccccc2)C(=O)N1c1ccccc1,"InChI=1S/C23H27N3O2/c1-17-21(23(27)26(24(17)3)20-12-8-5-9-13-20)16-25-14-15-28-22(18(25)2)19-10-6-4-7-11-19/h4-13,18,22H,14-16H2,1-3H3",OOGNFQMTGRZRAB-UHFFFAOYSA-N,?,,149.5,107899
107906,6616-80-4,6616-80-4,CCNc1[n]c(NCC(=O)OCC)[n]c(Cl)[n]1,Eglinazine ethyl,Eglinazine-ethyl,"ethyl 2-[(4-chloro-6-ethylamino-1,3,5-triazin-2-yl)amino]acetate",34589,DTXSID4058449,CCNc1[n]c(NCC(=O)OCC)[n]c(Cl)[n]1,"InChI=1S/C9H14ClN5O2/c1-3-11-8-13-7(10)14-9(15-8)12-5-6(16)17-4-2/h3-5H2,1-2H3,(H2,11,12,13,14,15)",YESXTECNXIKUMM-UHFFFAOYSA-N,?,,228.0,107906
107910,6628-04-2,6628-04-2,Cc1cc(N)c2ccccc2[n]1,2-Methyl-quinolin-4-ylamine,4-Amino-2-methylquinoline,2-methylquinolin-4-amine,34593,DTXSID50216477,Cc1cc(N)c2ccccc2[n]1,"InChI=1S/C10H10N2/c1-7-6-9(11)8-4-2-3-5-10(8)12-7/h2-6H,1H3,(H2,11,12)",COCFIBRMFPWUDW-UHFFFAOYSA-N,?,,169.0,107910
107914,6630-33-7,6630-33-7,O=Cc1ccccc1Br,"Benzaldehyde, 2-bromo-","Benzaldehyde, 2-bromo-",2-Bromobenzaldehyde,34596,DTXSID8064430,O=Cc1ccccc1Br,InChI=1S/C7H5BrO/c8-7-4-2-1-3-6(7)5-9/h1-5H,NDOPHXWIAZIXPR-UHFFFAOYSA-N,?,,21.5,107914
107918,6669-13-2,6669-13-2,CC(C)(C)Oc1ccccc1,"BENZENE, (1,1-DIMETHYLETHOXY)-","Benzene, (1,1-dimethylethoxy)-",(2-methylpropan-2-yl)oxybenzene,34600,DTXSID30216839,CC(C)(C)Oc1ccccc1,"InChI=1S/C10H14O/c1-10(2,3)11-9-7-5-4-6-8-9/h4-8H,1-3H3",PNKZBZPLRKCVLI-UHFFFAOYSA-N,?,,-24.0,107918
107925,6709-22-4,NOCAS_871169,CC1=CCC(C(O)=O)C1(C)C,"2,2,3-Trimethyl-cyclopent-3-enecarboxylic acid",,,34604,DTXSID30871169,CC1=CCC(C(O)=O)C1(C)C,"InChI=1S/C9H14O2/c1-6-4-5-7(8(10)11)9(6,2)3/h4,7H,5H2,1-3H3,(H,10,11)",ZRVJUIDXQSYDBJ-UHFFFAOYSA-N,?,,40.5,107925
107929,6742-54-7,6742-54-7,CCCCCCCCCCCc1ccccc1,1-PHENYLUNDECANE,1-Phenylundecane,C17H28,34608,DTXSID3029281,CCCCCCCCCCCc1ccccc1,"InChI=1S/C17H28/c1-2-3-4-5-6-7-8-9-11-14-17-15-12-10-13-16-17/h10,12-13,15-16H,2-9,11,14H2,1H3",XBEADGFTLHRJRB-UHFFFAOYSA-N,?,,-5.0,107929
107933,6781-98-2,6781-98-2,Cc1cccc(C)c1Cl,"BENZENE, 2-CHLORO-1,3-DIMETHYL-","2-Chloro-1,3-dimethylbenzene","2-chloro-1,3-dimethylbenzene",34612,DTXSID40218061,Cc1cccc(C)c1Cl,"InChI=1S/C8H9Cl/c1-6-4-3-5-7(2)8(6)9/h3-5H,1-2H3",VDXLAYAQGYCQEO-UHFFFAOYSA-N,?,,-35.0,107933
107937,6812-38-0,6812-38-0,CCCCCCCCCCCCCCCCC1CCCCC1,1-CYCLOHEXYLHEXADECANE,"Cyclohexane, hexadecyl-",hexadecylcyclohexane,34616,DTXSID1075068,CCCCCCCCCCCCCCCCC1CCCCC1,"InChI=1S/C22H44/c1-2-3-4-5-6-7-8-9-10-11-12-13-14-16-19-22-20-17-15-18-21-22/h22H,2-21H2,1H3",NRHBFNBZAZZTAU-UHFFFAOYSA-N,?,,33.6,107937
107941,6863-58-7,6863-58-7,CC(CC)OC(C)CC,DI (SEC-BUTYL) ETHER,Bis(2-butyl) ether,2-(butan-2-yloxy)butane,34620,DTXSID6027636,CC(CC)OC(C)CC,"InChI=1S/C8H18O/c1-5-7(3)9-8(4)6-2/h7-8H,5-6H2,1-4H3",HHBZZTKMMLDNDN-UHFFFAOYSA-N,?,,-100.0,107941
107947,6915-15-7,6915-15-7,OC(=O)C(O)CC(O)=O,MALIC ACID,Malic acid,2-hydroxybutanedioic acid,34626,DTXSID0027640,OC(=O)C(O)CC(O)=O,"InChI=1S/C4H6O5/c5-2(4(8)9)1-3(6)7/h2,5H,1H2,(H,6,7)(H,8,9)",BJEPYKJPYRNKOW-UHFFFAOYSA-N,?,,131.0,107947
107951,6936-40-9,NOCAS_863963,COc1c(Cl)c(Cl)cc(Cl)c1Cl,"BENZENE, 1,2,4,5-TETRACHLORO-3-METHOXY-",,,34630,DTXSID30863963,COc1c(Cl)c(Cl)cc(Cl)c1Cl,"InChI=1S/C7H4Cl4O/c1-12-7-5(10)3(8)2-4(9)6(7)11/h2H,1H3",WMMFIDNWZNCBCT-UHFFFAOYSA-N,?,,88.5,107951
107956,6942-99-0,6942-99-0,Cc1c(Br)c(C)cc(C)c1Br,"BENZENE, 2,4-DIBROMO-1,3,5-TRIMETHYL-","2,4-Dibromo-1,3,5-trimethylbenzene","2,4-Dibromo-1,3,5-trimethylbenzene",34634,DTXSID00219579,Cc1c(Br)c(C)cc(C)c1Br,"InChI=1S/C9H10Br2/c1-5-4-6(2)9(11)7(3)8(5)10/h4H,1-3H3",CIHJFEWFZJQTFE-UHFFFAOYSA-N,?,,65.5,107956
107960,6950-84-1,6950-84-1,NC(=O)Nc1cccc2ccccc21,Naphthalen-1-yl-urea,"Urea, 1-naphthalenyl-",naphthalen-1-ylurea,34638,DTXSID1075303,NC(=O)Nc1cccc2ccccc21,"InChI=1S/C11H10N2O/c12-11(14)13-10-7-3-5-8-4-1-2-6-9(8)10/h1-7H,(H3,12,13,14)",FVSUYFWWFUVGRG-UHFFFAOYSA-N,?,,219.5,107960
107964,6964-20-1,6964-20-1,OCCSCCCCCCCCCCSCCO,Tiadenol,Tiadenol [INN:DCF],2-[10-(2-hydroxyethylsulfanyl)decylsulfanyl]ethanol,34642,DTXSID50219903,OCCSCCCCCCCCCCSCCO,"InChI=1S/C14H30O2S2/c15-9-13-17-11-7-5-3-1-2-4-6-8-12-18-14-10-16/h15-16H,1-14H2",WRCITXQNXAIKLR-UHFFFAOYSA-N,?,,69.5,107964
107969,6983-79-5,6983-79-5,COC(=O)/C=C/C(/C)=C\C=C\C(\C)=C\C=C\C=C(/C)\C=C\C=C(/C)\C=C\C(O)=O,Bixin,Bixin,"(2E,4E,6E,8E,10E,12E,14E,16Z,18E)-20-methoxy-4,8,13,17-tetramethyl-20-oxoicosa-2,4,6,8,10,12,14,16,18-nonaenoic acid",34647,DTXSID1024629,COC(=O)C=CC(C)=CC=CC(C)=CC=CC=C(C)C=CC=C(C)C=CC(O)=O,"InChI=1S/C25H30O4/c1-20(12-8-14-22(3)16-18-24(26)27)10-6-7-11-21(2)13-9-15-23(4)17-19-25(28)29-5/h6-19H,1-5H3,(H,26,27)/b7-6+,12-8+,13-9+,18-16+,19-17+,20-10+,21-11+,22-14+,23-15+",RAFGELQLHMBRHD-IFNPSABLSA-N,?,,198.0,107969
107973,6996-81-2,6996-81-2,CP(=S)(OCC)OCC,"Phosphonothioic acid, methyl-, diethyl ester","Phosphonothioic acid, methyl-, O,o-diethyl ester",diethoxy-methyl-sulfanylidenephosphorane,34651,DTXSID10220237,CP(=S)(OCC)OCC,"InChI=1S/C5H13O2PS/c1-4-6-8(3,9)7-5-2/h4-5H2,1-3H3",GEDUXIUTPVHAAV-UHFFFAOYSA-N,?,,-84.4,107973
107977,7005-47-2,7005-47-2,CN(C)C(C)(C)CO,DMAMP,2-(Dimethylamino)-2-methylpropan-1-ol,2-(dimethylamino)-2-methylpropan-1-ol,34655,DTXSID6044721,CN(C)C(C)(C)CO,"InChI=1S/C6H15NO/c1-6(2,5-8)7(3)4/h8H,5H2,1-4H3",XRIBIDPMFSLGFS-UHFFFAOYSA-N,?,,19.0,107977
107983,7094-26-0,NOCAS_871181,CC1CCCCC1(C)C,"CYCLOHEXANE, 1,1,2-TRIMETHYL-",,,34659,DTXSID50871181,CC1CCCCC1(C)C,"InChI=1S/C9H18/c1-8-6-4-5-7-9(8,2)3/h8H,4-7H2,1-3H3",MEBONNVPKOBPEA-UHFFFAOYSA-N,?,,-29.0,107983
107987,7144-05-0,7144-05-0,NCC1CCNCC1,4-Piperidinemethanamine,4-Piperidinemethanamine,piperidin-4-ylmethanamine,34663,DTXSID8064569,NCC1CCNCC1,"InChI=1S/C6H14N2/c7-5-6-1-3-8-4-2-6/h6,8H,1-5,7H2",LTEKQAPRXFBRNN-UHFFFAOYSA-N,?,,25.0,107987
107991,7149-75-9,7149-75-9,Cc1cc(N)ccc1Cl,3-METHYL-4-CHLOROANILINE,4-Chloro-3-methylaniline,4-Chloro-3-methylaniline,34667,DTXSID5073377,Cc1cc(N)ccc1Cl,"InChI=1S/C7H8ClN/c1-5-4-6(9)2-3-7(5)8/h2-4H,9H2,1H3",HIHCTGNZNHSZPP-UHFFFAOYSA-N,?,,83.5,107991
107995,7154-79-2,7154-79-2,CC(C)(C)C(C)(C)CC,"2,2,3,3-TETRAMETHYLPENTANE","2,2,3,3-Tetramethylpentane","2,2,3,3-Tetramethylpentane",34671,DTXSID60221779,CC(C)(C)C(C)(C)CC,"InChI=1S/C9H20/c1-7-9(5,6)8(2,3)4/h7H2,1-6H3",QUKOJKFJIHSBKV-UHFFFAOYSA-N,?,,-9.8,107995
108000,7187-01-1,NOCAS_871186,N#CC=Cc1ccco1,2-Furanacrylonitrile,"2-Furanacrylonitrile, (E)-",?,34675,DTXSID50871186,N#CC=Cc1ccco1,"InChI=1S/C7H5NO/c8-5-1-3-7-4-2-6-9-7/h1-4,6H/b3-1+",ZHKAQNFBQHPERX-HNQUOIGGSA-N,?,,38.0,108000
108004,7209-38-3,7209-38-3,NCCCN1CCN(CC1)CCCN,"1,4-PIPERAZINEDIPROPANAMINE","1,4-bis(3-Aminopropyl)piperazine","3,3'-piperazine-1,4-diyldipropan-1-amine",34679,DTXSID8022246,NCCCN1CCN(CC1)CCCN,InChI=1S/C10H24N4/c11-3-1-5-13-7-9-14(10-8-13)6-2-4-12/h1-12H2,XUSNPFGLKGCWGN-UHFFFAOYSA-N,?,,15.0,108004
108009,7235-40-7,7235-40-7,CC1(C)CCCC(C)=C1/C=C/C(/C)=C/C=C/C(/C)=C/C=C/C=C(\C)/C=C/C=C(\C)/C=C/C1=C(C)CCCC1(C)C,".beta.,.beta.-Carotene",beta-Carotene,C40H56,34684,DTXSID3020253,CC1(C)CCCC(C)=C1C=CC(C)=CC=CC(C)=CC=CC=C(C)C=CC=C(C)C=CC1=C(C)CCCC1(C)C,"InChI=1S/C40H56/c1-31(19-13-21-33(3)25-27-37-35(5)23-15-29-39(37,7)8)17-11-12-18-32(2)20-14-22-34(4)26-28-38-36(6)24-16-30-40(38,9)10/h11-14,17-22,25-28H,15-16,23-24,29-30H2,1-10H3/b12-11+,19-13+,20-14+,27-25+,28-26+,31-17+,32-18+,33-21+,34-22+",OENHQHLEOONYIE-JLTXGRSLSA-N,?,,183.0,108009
108013,7251-61-8,7251-61-8,Cc1c[n]c2ccccc2[n]1,2-METHYLQUINOXALINE,2-Methylquinoxaline,2-Methylquinoxaline,34688,DTXSID50222831,Cc1c[n]c2ccccc2[n]1,"InChI=1S/C9H8N2/c1-7-6-10-8-4-2-3-5-9(8)11-7/h2-6H,1H3",ALHUXMDEZNLFTA-UHFFFAOYSA-N,?,,180.5,108013
108017,7287-36-7,7287-36-7,CCCC(C)(C)C(=O)Nc1ccc(Cl)cc1,MONALIDE (POTABLAN),Monalide,"N-(4-chlorophenyl)-2,2-dimethylpentanamide",34692,DTXSID0042163,CCCC(C)(C)C(=O)Nc1ccc(Cl)cc1,"InChI=1S/C13H18ClNO/c1-4-9-13(2,3)12(16)15-11-7-5-10(14)6-8-11/h5-8H,4,9H2,1-3H3,(H,15,16)",KXGYBSNVFXBPNO-UHFFFAOYSA-N,?,,87.5,108017
108021,7319-00-8,592-45-0,C/C=C/CC=C,"TRANS-1,4-HEXADIENE","1,4-Hexadiene",C6H10,34696,DTXSID5027227,CC=CCC=C,"InChI=1S/C6H10/c1-3-5-6-4-2/h3-4,6H,1,5H2,2H3/b6-4+",PRBHEGAFLDMLAL-GQCTYLIASA-N,?,,-138.7,108021
108025,7361-61-7,7361-61-7,Cc1cccc(C)c1NC1=NCCCS1,Xylazine,Xylazine,"N-(2,6-dimethylphenyl)-5,6-dihydro-4H-1,3-thiazin-2-amine",34700,DTXSID3040643,Cc1cccc(C)c1NC1=NCCCS1,"InChI=1S/C12H16N2S/c1-9-5-3-6-10(2)11(9)14-12-13-7-4-8-15-12/h3,5-6H,4,7-8H2,1-2H3,(H,13,14)",BPICBUSOMSTKRF-UHFFFAOYSA-N,?,,140.0,108025
108029,7378-99-6,7378-99-6,CCCCCCCCN(C)C,Octyldimethylamine,"N,N-Dimethyloctylamine","N,N-dimethyloctan-1-amine",34704,DTXSID2036299,CCCCCCCCN(C)C,"InChI=1S/C10H23N/c1-4-5-6-7-8-9-10-11(2)3/h4-10H2,1-3H3",UQKAOOAFEFCDGT-UHFFFAOYSA-N,?,,-57.0,108029
108035,7413-36-7,7413-36-7,CC(C)NCC(O)c1ccc(cc1)[N+]([O-])=O,1(4-NO2 PH)-2-ISOPROPYLAMINO-ETHANOL,Nifenalol,1-(4-nitrophenyl)-2-(propan-2-ylamino)ethanol,34708,DTXSID9048693,CC(C)NCC(O)c1ccc(cc1)[N+]([O-])=O,"InChI=1S/C11H16N2O3/c1-8(2)12-7-11(14)9-3-5-10(6-4-9)13(15)16/h3-6,8,11-12,14H,7H2,1-2H3",UAORFCGRZIGNCI-UHFFFAOYSA-N,?,,98.0,108035
108039,7433-56-9,7433-56-9,CCCC/C=C/CCCC,trans-5-Decene,,,34712,DTXSID30873229,CCCCC=CCCCC,"InChI=1S/C10H20/c1-3-5-7-9-10-8-6-4-2/h9-10H,3-8H2,1-2H3/b10-9+",UURSXESKOOOTOV-MDZDMXLPSA-N,?,,-73.0,108039
108055,7493-82-5,7493-82-5,CCCCCCC(=O)OCCCCC,"Heptanoic acid, pentyl ester","Heptanoic acid, pentyl ester",Pentyl heptanoate,34716,DTXSID3064724,CCCCCCC(=O)OCCCCC,"InChI=1S/C12H24O2/c1-3-5-7-8-10-12(13)14-11-9-6-4-2/h3-11H2,1-2H3",PSQMUBJRXIGVIT-UHFFFAOYSA-N,?,,-50.0,108055
108059,7525-62-4,7525-62-4,CCc1cc(C=C)ccc1,M-ETHYLSTYRENE,"Benzene, 1-ethenyl-3-ethyl-",1-ethenyl-3-ethylbenzene,34720,DTXSID7075266,CCc1cc(C=C)ccc1,"InChI=1S/C10H12/c1-3-9-6-5-7-10(4-2)8-9/h3,5-8H,1,4H2,2H3",XHUZSRRCICJJCN-UHFFFAOYSA-N,?,,-101.0,108059
108066,7572-29-4,7572-29-4,ClC#CCl,Dichloroacetylene,Dichloroacetylene,dichloroethyne,34724,DTXSID7020429,ClC#CCl,InChI=1S/C2Cl2/c3-1-2-4,ZMJOVJSTYLQINE-UHFFFAOYSA-N,?,,-66.0,108066
108071,7616-22-0,7616-22-0,CC(C)CCCC(C)CCCC(C)CCCC1(C)CCc2cc(O)c(C)c(C)c2O1,"2H-1-Benzopyran-6-ol, 3,4-dihydro-2,7,8-trimethy",gamma-Tocopherol,"2,7,8-trimethyl-2-(4,8,12-trimethyltridecyl)-3,4-dihydro-2H-chromen-6-ol",34728,DTXSID5044075,CC(C)CCCC(C)CCCC(C)CCCC1(C)CCc2cc(O)c(C)c(C)c2O1,"InChI=1S/C28H48O2/c1-20(2)11-8-12-21(3)13-9-14-22(4)15-10-17-28(7)18-16-25-19-26(29)23(5)24(6)27(25)30-28/h19-22,29H,8-18H2,1-7H3",QUEDXNHFTDJVIY-UHFFFAOYSA-N,?,,-3.0,108071
108081,7665-72-7,7665-72-7,CC(C)(C)OCC1CO1,"Oxirane,  (1,1-dimethylethoxy)methyl -",tert-Butyl glycidyl ether,2-(tert-butoxymethyl)oxirane,34734,DTXSID4024692,CC(C)(C)OCC1CO1,"InChI=1S/C7H14O2/c1-7(2,3)9-5-6-4-8-6/h6H,4-5H2,1-3H3",SFJRUJUEMVAZLM-UHFFFAOYSA-N,?,,-70.0,108081
108088,7696-12-0,7696-12-0,CC(C)=CC1C(C(=O)OCN2C(=O)C3CCCCC=3C2=O)C1(C)C,PHTHALTHRIN,Tetramethrin,"(1,3-dioxo-1,3,4,5,6,7-hexahydro-2H-isoindol-2-yl)methyl (1R,3R)-2,2-dimethyl-3-(2-methylprop-1-en-1-yl)cyclopropanecarboxylate",34738,DTXSID6032649,CC(C)=CC1C(C(=O)OCN2C(=O)C3CCCCC=3C2=O)C1(C)C,"InChI=1S/C19H25NO4/c1-11(2)9-14-15(19(14,3)4)18(23)24-10-20-16(21)12-7-5-6-8-13(12)17(20)22/h9,14-15H,5-8,10H2,1-4H3",CXBMCYHAMVGWJQ-UHFFFAOYSA-N,?,,69.0,108088
108104,7778-87-2,7778-87-2,CCCOC(=O)CCCCCC,Heptanoic acid propyl ester,Propyl heptanoate,Propyl heptanoate,34742,DTXSID90228397,CCCOC(=O)CCCCCC,"InChI=1S/C10H20O2/c1-3-5-6-7-8-10(11)12-9-4-2/h3-9H2,1-2H3",UWZVPQKWYFZLLW-UHFFFAOYSA-N,?,,-63.5,108104
108114,7789-92-6,7789-92-6,CCOCCC(OCC)OCC,"Propane, 1,3,3-triethoxy-","1,1,3-Triethoxypropane","1,1,3-Triethoxypropane",34749,DTXSID40228509,CCOCCC(OCC)OCC,"InChI=1S/C9H20O3/c1-4-10-8-7-9(11-5-2)12-6-3/h9H,4-8H2,1-3H3",LGICWIVABSMSDK-UHFFFAOYSA-N,?,,53.0,108114
108128,10031-82-0,10031-82-0,CCOc1ccc(C=O)cc1,"Benzaldehyde, 4-ethoxy-",p-Ethoxybenzaldehyde,4-ethoxybenzaldehyde,34753,DTXSID7022251,CCOc1ccc(C=O)cc1,"InChI=1S/C9H10O2/c1-2-11-9-5-3-8(7-10)4-6-9/h3-7H,2H2,1H3",JRHHJNMASOIRDS-UHFFFAOYSA-N,?,,13.5,108128