ChemID,source_casrn,CAS,SMILES,NAME,preferred_name,iupac,MPID,dsstox_substance_id,Canonical_QSARr,InChI_Code_QSARr,InChI Key_QSARr,Salt_Solvent,Salt_Solvent_ID,MP,ID
100342,66-56-8,66-56-8,[O-][N+](=O)c1c(O)cccc1[N+]([O-])=O,"2,3-DINITROPHENOL","Phenol, 2,3-dinitro-","2,3-DINITROPHENOL",27715,DTXSID2075261,[O-][N+](=O)c1c(O)cccc1[N+]([O-])=O,"InChI=1S/C6H4N2O5/c9-5-3-1-2-4(7(10)11)6(5)8(12)13/h1-3,9H",MHKBMNACOMRIAW-UHFFFAOYSA-N,?,,144.5,100342
100343,66-71-7,66-71-7,c1cc2ccc[n]c2c2[n]cccc21,O-PHENANTHROLINE,"1,10-Phenanthroline","1,10-phenanthroline",27716,DTXSID1025857,c1cc2ccc[n]c2c2[n]cccc21,InChI=1S/C12H8N2/c1-3-9-5-6-10-4-2-8-14-12(10)11(9)13-7-1/h1-8H,DGEZNRSVGBDHLK-UHFFFAOYSA-N,?,,117.0,100343
100344,66-72-8,66-72-8,Cc1[n]cc(CO)c(C=O)c1O,PYRIDOXAL,Pyridoxal,3-hydroxy-5-(hydroxymethyl)-2-methylpyridine-4-carbaldehyde,27717,DTXSID4046020,Cc1[n]cc(CO)c(C=O)c1O,"InChI=1S/C8H9NO3/c1-5-8(12)7(4-11)6(3-10)2-9-5/h2,4,10,12H,3H2,1H3",RADKZDMFGJYCBB-UHFFFAOYSA-N,?,,165.0,100344
100346,66-77-3,66-77-3,O=Cc1cccc2ccccc21,1-Naphthalenecarboxaldehyde,1-Naphthaldehyde,naphthalene-1-carbaldehyde,27719,DTXSID5058775,O=Cc1cccc2ccccc21,InChI=1S/C11H8O/c12-8-10-6-3-5-9-4-1-2-7-11(9)10/h1-8H,SQAINHDHICKHLX-UHFFFAOYSA-N,?,,33.5,100346
100347,66-79-5,66-79-5,Cc1o[n]c(c1C(=O)N[C@H]1[C@H]2SC(C)(C)[C@H](C(O)=O)N2C1=O)-c1ccccc1,OXACILLIN,Oxacillin,"(2S,5R,6R)-3,3-dimethyl-6-{[(5-methyl-3-phenyl-1,2-oxazol-4-yl)carbonyl]amino}-7-oxo-4-thia-1-azabicyclo[3.2.0]heptane-2-carboxylic acid",27720,DTXSID8023397,Cc1o[n]c(c1C(=O)NC1C2SC(C)(C)C(C(O)=O)N2C1=O)-c1ccccc1,"InChI=1S/C19H19N3O5S/c1-9-11(12(21-27-9)10-7-5-4-6-8-10)15(23)20-13-16(24)22-14(18(25)26)19(2,3)28-17(13)22/h4-8,13-14,17H,1-3H3,(H,20,23)(H,25,26)",UWYHMGVUTGAWSP-UHFFFAOYSA-N,?,,188.0,100347
100348,66-81-9,66-81-9,C[C@@H]1C[C@@H]([C@H](O)CC2CC(=O)NC(=O)C2)C(=O)[C@@H](C)C1,CYCLOHEXIMIDE,Cycloheximide,"4-{(2R)-2-[(1S,3S,5S)-3,5-dimethyl-2-oxocyclohexyl]-2-hydroxyethyl}piperidine-2,6-dione",27721,DTXSID6024882,CC1CC(C(O)CC2CC(=O)NC(=O)C2)C(=O)C(C)C1,"InChI=1S/C15H23NO4/c1-8-3-9(2)15(20)11(4-8)12(17)5-10-6-13(18)16-14(19)7-10/h8-12,17H,3-7H2,1-2H3,(H,16,18,19)",YPHMISFOHDHNIV-UHFFFAOYSA-N,?,,119.0,100348
100350,66-99-9,66-99-9,O=Cc1cc2ccccc2cc1,NAPHTHALENE-2-CARBONITRILE,2-Naphthalenecarboxaldehyde,naphthalene-2-carbaldehyde,27723,DTXSID6075352,O=Cc1cc2ccccc2cc1,InChI=1S/C11H8O/c12-8-9-5-6-10-3-1-2-4-11(10)7-9/h1-8H,PJKVFARRVXDXAD-UHFFFAOYSA-N,?,,62.0,100350
100351,67-16-3,67-16-3,Cc1[n]c(N)c(CN(C=O)C(C)=C(CCO)SSC(CCO)=C(C)N(Cc2c[n]c(C)[n]c2N)C=O)c[n]1,Thiamine Disulfide,Thiamine disulfide,C24H34N8O4S2,27724,DTXSID6046890,Cc1[n]c(N)c(CN(C=O)C(C)=C(CCO)SSC(CCO)=C(C)N(Cc2c[n]c(C)[n]c2N)C=O)c[n]1,"InChI=1S/C24H34N8O4S2/c1-15(31(13-35)11-19-9-27-17(3)29-23(19)25)21(5-7-33)37-38-22(6-8-34)16(2)32(14-36)12-20-10-28-18(4)30-24(20)26/h9-10,13-14,33-34H,5-8,11-12H2,1-4H3,(H2,25,27,29)(H2,26,28,30)/b21-15-,22-16-",GFEGEDUIIYDMOX-BMJUYKDLSA-N,?,,177.0,100351
100352,67-20-9,67-20-9,[O-][N+](=O)c1ccc(C=NN2CC(=O)NC2=O)o1,NITROFURANTOIN,Nitrofurantoin,"1-{[(5-nitrofuran-2-yl)methylidene]amino}imidazolidine-2,4-dione",27725,DTXSID7020972,[O-][N+](=O)c1ccc(C=NN2CC(=O)NC2=O)o1,"InChI=1S/C8H6N4O5/c13-6-4-11(8(14)10-6)9-3-5-1-2-7(17-5)12(15)16/h1-3H,4H2,(H,10,13,14)/b9-3+",NXFQHRVNIOXGAQ-YCRREMRBSA-N,?,,263.0,100352
100354,67-45-8,67-45-8,[O-][N+](=O)c1ccc(/C=N/N2CCOC2=O)o1,FURAZOLIDONE,Furazolidone,"3-{(E)-[(5-nitrofuran-2-yl)methylidene]amino}-1,3-oxazolidin-2-one",27727,DTXSID4041997,[O-][N+](=O)c1ccc(C=NN2CCOC2=O)o1,"InChI=1S/C8H7N3O5/c12-8-10(3-4-15-8)9-5-6-1-2-7(16-6)11(13)14/h1-2,5H,3-4H2/b9-5+",PLHJDBGFXBMTGZ-WEVVVXLNSA-N,?,,255.0,100354
100355,67-47-0,67-47-0,OCc1ccc(C=O)o1,"2-Furaldehyde, 5-hydroxymethyl-",5-(Hydroxymethyl)-2-furfural,5-(hydroxymethyl)furan-2-carbaldehyde,27728,DTXSID3030428,OCc1ccc(C=O)o1,"InChI=1S/C6H6O3/c7-3-5-1-2-6(4-8)9-5/h1-3,8H,4H2",NOEGNKMFWQHSLB-UHFFFAOYSA-N,?,,31.5,100355
100356,67-51-6,67-51-6,Cc1cc(C)[nH][n]1,"1H-PYRAZOLE, 3,5-DIMETHYL-","3,5-Dimethylpyrazole",,27729,DTXSID5058777,Cc1cc(C)[nH][n]1,"InChI=1S/C5H8N2/c1-4-3-5(2)7-6-4/h3H,1-2H3,(H,6,7)",SDXAWLJRERMRKF-UHFFFAOYSA-N,?,,107.5,100356
100358,67-56-1,67-56-1,CO,METHANOL,Methanol,methanol,27731,DTXSID2021731,CO,"InChI=1S/CH4O/c1-2/h2H,1H3",OKKJLVBELUTLKV-UHFFFAOYSA-N,?,,-97.6,100358
100359,67-63-0,67-63-0,CC(C)O,ISOPROPANOL,Isopropanol,propan-2-ol,27732,DTXSID7020762,CC(C)O,"InChI=1S/C3H8O/c1-3(2)4/h3-4H,1-2H3",KFZMGEQAYNKOFK-UHFFFAOYSA-N,?,,-89.5,100359
100360,67-64-1|666-52-4,67-64-1|666-52-4,CC(C)=O,"ACETONE, 1,1,1,3,3,3-HEXADEUTERO-2-PROPANONE",Acetone,propan-2-one,27733|32224,DTXSID8021482|DTXSID20216767,CC(C)=O,InChI=1S/C3H6O/c1-3(2)4/h1-2H3,CSCPPACGZOOCGX-UHFFFAOYSA-N,?,,-96.55,100360
100362,67-68-5,67-68-5,CS(C)=O,DIMETHYL SULFOXIDE,Dimethyl sulfoxide,C2H6OS,27735,DTXSID2021735,CS(C)=O,InChI=1S/C2H6OS/c1-4(2)3/h1-2H3,IAZDPXIOMUYVGZ-UHFFFAOYSA-N,?,,18.5,100362
100363,67-71-0,67-71-0,CS(C)(=O)=O,DIMETHYL SULFONE,Dimethyl sulfone,dimethyl sulfone,27736,DTXSID4043937,CS(C)(=O)=O,"InChI=1S/C2H6O2S/c1-5(2,3)4/h1-2H3",HHVIBTZHLRERCL-UHFFFAOYSA-N,?,,109.0,100363
100364,67-72-1,67-72-1,ClC(Cl)(Cl)C(Cl)(Cl)Cl,HEXACHLOROETHANE,Hexachloroethane,hexachloroethane,27737,DTXSID7020689,ClC(Cl)(Cl)C(Cl)(Cl)Cl,"InChI=1S/C2Cl6/c3-1(4,5)2(6,7)8",VHHHONWQHHHLTI-UHFFFAOYSA-N,?,,187.0,100364
100366,67-78-7,67-78-7,C[C@]12C=CC(=O)C=C1CC[C@H]1[C@@H]3C[C@@H](OC(C)=O)[C@](O)(C(=O)COC(C)=O)[C@@]3(C)C[C@H](O)[C@]21F,TRIAMCINOLONE DIACETATE,Triamcinolone diacetate,"(11beta,16alpha)-9-fluoro-11,17-dihydroxy-3,20-dioxopregna-1,4-diene-16,21-diyl diacetate",27739,DTXSID0048713,CC12C=CC(=O)C=C1CCC1C3CC(OC(C)=O)C(O)(C(=O)COC(C)=O)C3(C)CC(O)C21F,"InChI=1S/C25H31FO8/c1-13(27)33-12-20(31)25(32)21(34-14(2)28)10-18-17-6-5-15-9-16(29)7-8-22(15,3)24(17,26)19(30)11-23(18,25)4/h7-9,17-19,21,30,32H,5-6,10-12H2,1-4H3",XGMPVBXKDAHORN-UHFFFAOYSA-N,?,,235.0,100366
100368,67-92-5,67-92-5,Cl.CCN(CCOC(=O)C1(CCCCC1)C1CCCCC1)CC,Dicyclomine Hydrochloride,2-Diethylaminoethyl bicyclohexyl-1-carboxylate hydrochloride,,27740,DTXSID0058778,CCN(CCOC(=O)C1(CCCCC1)C1CCCCC1)CC,"InChI=1S/C19H35NO2/c1-3-20(4-2)15-16-22-18(21)19(13-9-6-10-14-19)17-11-7-5-8-12-17/h17H,3-16H2,1-2H3",CURUTKGFNZGFSE-UHFFFAOYSA-N,Cl,18179,165.0,100368
100369,67-96-9,67-96-9,CC(C)[C@@H](C)/C=C/[C@@H](C)[C@H]1CC[C@H]2/C(/CCC[C@@]21C)=C/C=C1\C[C@@H](O)CC[C@@H]\1C,Dihydrotachysterol,Dihydrotachysterol,"(3S,5E,7E,10S,22E)-9,10-secoergosta-5,7,22-trien-3-ol",27741,DTXSID5022938,CC(C)C(C)C=CC(C)C1CCC2C(CCCC21C)=CC=C1CC(O)CCC1C,"InChI=1S/C28H46O/c1-19(2)20(3)9-10-22(5)26-15-16-27-23(8-7-17-28(26,27)6)12-13-24-18-25(29)14-11-21(24)4/h9-10,12-13,19-22,25-27,29H,7-8,11,14-18H2,1-6H3/b10-9+,23-12+,24-13+",ILYCWAKSDCYMBB-ZJGOHBTISA-N,?,,126.0,100369
100372,68-11-1,68-11-1,OC(=O)CS,MERCAPTOACETIC ACID,Thioglycolic acid,sulfanylacetic acid,27743,DTXSID8026141,OC(=O)CS,"InChI=1S/C2H4O2S/c3-2(4)1-5/h5H,1H2,(H,3,4)",CWERGRDVMFNCDR-UHFFFAOYSA-N,?,,-16.5,100372
100373,68-12-2,68-12-2,CN(C)C=O,"N,N'-DIMETHYLFORMAMIDE","N,N-Dimethylformamide","N,N-dimethylformamide",27744,DTXSID6020515,CN(C)C=O,"InChI=1S/C3H7NO/c1-4(2)3-5/h3H,1-2H3",ZMXDDKWLCZADIW-UHFFFAOYSA-N,?,,-60.4,100373
100374,68-22-4,68-22-4,C[C@]12CC[C@@H]3[C@H]4CCC(=O)C=C4CC[C@H]3[C@@H]1CC[C@@]2(O)C#C,Norethindrone,Norethindrone,(17beta)-17-ethynyl-17-hydroxyestr-4-en-3-one,27745,DTXSID9023380,CC12CCC3C4CCC(=O)C=C4CCC3C1CCC2(O)C#C,"InChI=1S/C20H26O2/c1-3-20(22)11-9-18-17-6-4-13-12-14(21)5-7-15(13)16(17)8-10-19(18,20)2/h1,12,15-18,22H,4-11H2,2H3",VIKNJXKGJWUCNN-UHFFFAOYSA-N,?,,203.5,100374
100376,68-26-8,68-26-8,CC1CCCC(C)(C)C=1/C=C/C(/C)=C/C=C/C(/C)=C/CO,Retinol,Retinol,retinol,27747,DTXSID3023556,CC1CCCC(C)(C)C=1C=CC(C)=CC=CC(C)=CCO,"InChI=1S/C20H30O/c1-16(8-6-9-17(2)13-15-21)11-12-19-18(3)10-7-14-20(19,4)5/h6,8-9,11-13,21H,7,10,14-15H2,1-5H3/b9-6+,12-11+,16-8+,17-13+",FPIPGXGPPPQFEQ-OVSJKPMPSA-N,?,,63.5,100376
100377,68-36-0,68-36-0,ClC(Cl)(Cl)c1ccc(cc1)C(Cl)(Cl)Cl,P-DI(TRICHLOROMETHYL)BENZENE,"1,4-Bis(trichloromethyl)benzene","1,4-bis(trichloromethyl)benzene",27748,DTXSID7026366,ClC(Cl)(Cl)c1ccc(cc1)C(Cl)(Cl)Cl,"InChI=1S/C8H4Cl6/c9-7(10,11)5-1-2-6(4-3-5)8(12,13)14/h1-4H",OTEKOJQFKOIXMU-UHFFFAOYSA-N,?,,109.0,100377
100378,68-39-3,68-41-7,N[C@@H]1CONC1=O,"3-Isoxazolidinone, 4-amino-, (+)-",Cycloserine,"(4R)-4-amino-1,2-oxazolidin-3-one",27749,DTXSID8022870,NC1CONC1=O,"InChI=1S/C3H6N2O2/c4-2-1-7-5-3(2)6/h2H,1,4H2,(H,5,6)",DYDCUQKUCUHJBH-UHFFFAOYSA-N,?,,139.5,100378
100380,68-90-6,68-90-6,CCc1oc2ccccc2c1C(=O)c1cc(I)c(O)c(I)c1,BENZIODARONE,Benziodarone,"(2-ethyl-1-benzofuran-3-yl)(4-hydroxy-3,5-diiodophenyl)methanone",27751,DTXSID1046134,CCc1oc2ccccc2c1C(=O)c1cc(I)c(O)c(I)c1,"InChI=1S/C17H12I2O3/c1-2-13-15(10-5-3-4-6-14(10)22-13)16(20)9-7-11(18)17(21)12(19)8-9/h3-8,21H,2H2,1H3",CZCHIEJNWPNBDE-UHFFFAOYSA-N,?,,167.0,100380
100381,68-96-2,68-96-2,CC(=O)[C@@]1(O)CC[C@H]2[C@@H]3CCC4=CC(=O)CC[C@]4(C)[C@H]3CC[C@]12C,17-ALPHA-HYDROXYPROGESTERONE,17alpha-Hydroxyprogesterone,"17-hydroxypregn-4-ene-3,20-dione",27752,DTXSID6040747,CC(=O)C1(O)CCC2C3CCC4=CC(=O)CCC4(C)C3CCC12C,"InChI=1S/C21H30O3/c1-13(22)21(24)11-8-18-16-5-4-14-12-15(23)6-9-19(14,2)17(16)7-10-20(18,21)3/h12,16-18,24H,4-11H2,1-3H3",DBPWSSGDRRHUNT-UHFFFAOYSA-N,?,,222.5,100381
100382,69-09-0,69-09-0,Cl.CN(C)CCCN1c2ccccc2Sc2ccc(Cl)cc12,Chlorpromazine hydrochloride [USAN:BAN:JAN],Chlorpromazine hydrochloride,"3-(2-chloro-10H-phenothiazin-10-yl)-N,N-dimethylpropan-1-amine hydrochloride (1:1)",27753,DTXSID7024827,CN(C)CCCN1c2ccccc2Sc2ccc(Cl)cc12,"InChI=1S/C17H19ClN2S/c1-19(2)10-5-11-20-14-6-3-4-7-16(14)21-17-9-8-13(18)12-15(17)20/h3-4,6-9,12H,5,10-11H2,1-2H3",ZPEIMTDSQAKGNT-UHFFFAOYSA-N,Cl,18179,195.0,100382
100388,69-72-7,69-72-7,Oc1ccccc1C(O)=O,SALICYLIC ACID,Salicylic acid,2-hydroxybenzoic acid,27755,DTXSID7026368,Oc1ccccc1C(O)=O,"InChI=1S/C7H6O3/c8-6-4-2-1-3-5(6)7(9)10/h1-4,8H,(H,9,10)",YGSDEFSMJLZEOE-UHFFFAOYSA-N,?,,158.0,100388
100391,70-00-8,70-00-8,O[C@H]1C[C@@H](O[C@@H]1CO)N1C=C(C(=O)NC1=O)C(F)(F)F,TRIFLURIDINE,Trifluridine,2'-deoxy-5-(trifluoromethyl)uridine,27756,DTXSID4046602,OC1CC(OC1CO)N1C=C(C(=O)NC1=O)C(F)(F)F,"InChI=1S/C10H11F3N2O5/c11-10(12,13)4-2-15(9(19)14-8(4)18)7-1-5(17)6(3-16)20-7/h2,5-7,16-17H,1,3H2,(H,14,18,19)",VSQQQLOSPVPRAZ-UHFFFAOYSA-N,?,,187.5,100391
100393,70-11-1,70-11-1,O=C(CBr)c1ccccc1,"ETHANONE, 2-BROMO-1-PHENYL-",2-Bromoacetophenone,2-bromo-1-phenylethanone,27757,DTXSID2049426,O=C(CBr)c1ccccc1,"InChI=1S/C8H7BrO/c9-6-8(10)7-4-2-1-3-5-7/h1-5H,6H2",LIGACIXOYTUXAW-UHFFFAOYSA-N,?,,50.5,100393
100395,70-26-8,NOCAS_860383,NCCCC(N)C(O)=O,ORNITHINE,,,27759,DTXSID00860383,NCCCC(N)C(O)=O,"InChI=1S/C5H12N2O2/c6-3-1-2-4(7)5(8)9/h4H,1-3,6-7H2,(H,8,9)",AHLPHDHHMVZTML-UHFFFAOYSA-N,?,,140.0,100395
100396,70-29-1,70-29-1,CCS(=O)CC,Diethyl sulfoxide,Diethyl sulfoxide,1-ethylsulfinylethane,27760,DTXSID70220253,CCS(=O)CC,"InChI=1S/C4H10OS/c1-3-6(5)4-2/h3-4H2,1-2H3",CCAFPWNGIUBUSD-UHFFFAOYSA-N,?,,14.0,100396
100397,70-30-4,70-30-4,Oc1c(Cc2c(Cl)c(Cl)cc(Cl)c2O)c(Cl)c(Cl)cc1Cl,HEXACHLOROPHENE,Hexachlorophene,"2,2'-methanediylbis(3,4,6-trichlorophenol)",27761,DTXSID6020690,Oc1c(Cc2c(Cl)c(Cl)cc(Cl)c2O)c(Cl)c(Cl)cc1Cl,"InChI=1S/C13H6Cl6O2/c14-6-2-8(16)12(20)4(10(6)18)1-5-11(19)7(15)3-9(17)13(5)21/h2-3,20-21H,1H2",ACGUYXCXAPNIKK-UHFFFAOYSA-N,?,,166.5,100397
100399,70-47-3,NOCAS_859927,NC(=O)CC(N)C(O)=O,ASPARAGINE,,,27763,DTXSID30859927,NC(=O)CC(N)C(O)=O,"InChI=1S/C4H8N2O3/c5-2(4(8)9)1-3(6)7/h2H,1,5H2,(H2,6,7)(H,8,9)",DCXYFEDJOCDNAF-UHFFFAOYSA-N,?,,234.5,100399
100400,70-49-5,70-49-5,OC(=O)C(S)CC(O)=O,"Butanedioic acid, mercapto-",,,27764,DTXSID20861615,OC(=O)C(S)CC(O)=O,"InChI=1S/C4H6O4S/c5-3(6)1-2(9)4(7)8/h2,9H,1H2,(H,5,6)(H,7,8)",NJRXVEJTAYWCQJ-UHFFFAOYSA-N,?,,149.0,100400
100401,70-51-9,70-51-9,CC(=O)N(O)CCCCCNC(=O)CCC(=O)N(O)CCCCCNC(=O)CCC(=O)N(O)CCCCCN,Deferoxamine,Deferoxamine,N'-{5-[acetyl(hydroxy)amino]pentyl}-N-[5-({4-[(5-aminopentyl)(hydroxy)amino]-4-oxobutanoyl}amino)pentyl]-N-hydroxybutanediamide,27765,DTXSID7022887,CC(=O)N(O)CCCCCNC(=O)CCC(=O)N(O)CCCCCNC(=O)CCC(=O)N(O)CCCCCN,"InChI=1S/C25H48N6O8/c1-21(32)29(37)18-9-3-6-16-27-22(33)12-14-25(36)31(39)20-10-4-7-17-28-23(34)11-13-24(35)30(38)19-8-2-5-15-26/h37-39H,2-20,26H2,1H3,(H,27,33)(H,28,34)",UBQYURCVBFRUQT-UHFFFAOYSA-N,?,,140.0,100401
100403,70-55-3,70-55-3,Cc1ccc(cc1)S(N)(=O)=O,4-METHYLBENZENESULFONAMIDE,4-Toluenesulfonamide,4-methylbenzenesulfonamide,27766,DTXSID8029105,Cc1ccc(cc1)S(N)(=O)=O,"InChI=1S/C7H9NO2S/c1-6-2-4-7(5-3-6)11(8,9)10/h2-5H,1H3,(H2,8,9,10)",LMYRWZFENFIFIT-UHFFFAOYSA-N,?,,138.5,100403
100404,70-69-9,70-69-9,CCC(=O)c1ccc(N)cc1,"1-Propanone, 1-(4-aminophenyl)-",4'-Aminopropiophenone,1-(4-aminophenyl)propan-1-one,27767,DTXSID7021738,CCC(=O)c1ccc(N)cc1,"InChI=1S/C9H11NO/c1-2-9(11)7-3-5-8(10)6-4-7/h3-6H,2,10H2,1H3",FSWXOANXOQPCFF-UHFFFAOYSA-N,?,,140.0,100404
100406,71-23-8,71-23-8,CCCO,1-PROPANOL,1-Propanol,propan-1-ol,27768,DTXSID2021739,CCCO,"InChI=1S/C3H8O/c1-2-3-4/h4H,2-3H2,1H3",BDERNNFJNOPAEC-UHFFFAOYSA-N,?,,-126.1,100406
100408,71-36-3,71-36-3,CCCCO,1-BUTANOL,1-Butanol,butan-1-ol,27770,DTXSID1021740,CCCCO,"InChI=1S/C4H10O/c1-2-3-4-5/h5H,2-4H2,1H3",LRHPLDYGYMQRHN-UHFFFAOYSA-N,?,,-89.8,100408
100409,71-41-0,71-41-0,CCCCCO,1-PENTANOL,1-Pentanol,pentan-1-ol,27771,DTXSID6021741,CCCCCO,"InChI=1S/C5H12O/c1-2-3-4-5-6/h6H,2-5H2,1H3",AMQJEAYHLZJPGS-UHFFFAOYSA-N,?,,-78.9,100409
100410,71-43-2,71-43-2,c1ccccc1,BENZENE,Benzene,benzene,27772,DTXSID3039242,c1ccccc1,InChI=1S/C6H6/c1-2-4-6-5-3-1/h1-6H,UHOVQNZJYSORNB-UHFFFAOYSA-N,?,,5.5,100410
100412,71-55-6,71-55-6,CC(Cl)(Cl)Cl,"1,1,1-TRICHLOROETHANE","1,1,1-Trichloroethane","1,1,1-trichloroethane",27774,DTXSID0021381,CC(Cl)(Cl)Cl,"InChI=1S/C2H3Cl3/c1-2(3,4)5/h1H3",UOCLXMDMGBRAIB-UHFFFAOYSA-N,?,,-30.4,100412
100413,71-58-9,71-58-9,C[C@H]1C[C@@H]2[C@H](CC[C@@]3(C)[C@H]2CC[C@]3(OC(C)=O)C(C)=O)[C@@]2(C)CCC(=O)C=C21,Medroxyprogesterone acetate [JAN],Medroxyprogesterone acetate,"(6alpha)-6-methyl-3,20-dioxopregn-4-en-17-yl acetate",27775,DTXSID0025527,CC1CC2C(CCC3(C)C2CCC3(OC(C)=O)C(C)=O)C2(C)CCC(=O)C=C21,"InChI=1S/C24H34O4/c1-14-12-18-19(22(4)9-6-17(27)13-21(14)22)7-10-23(5)20(18)8-11-24(23,15(2)25)28-16(3)26/h13-14,18-20H,6-12H2,1-5H3",PSGAAPLEWMOORI-UHFFFAOYSA-N,?,,206.5,100413
100419,72-18-4,640-68-6,CC(C)[C@@H](N)C(O)=O,VALINE,D-Valine,D-valine,27778,DTXSID0046064,CC(C)C(N)C(O)=O,"InChI=1S/C5H11NO2/c1-3(2)4(6)5(7)8/h3-4H,6H2,1-2H3,(H,7,8)",KZSNJWFQEVHDMF-UHFFFAOYSA-N,?,,315.0,100419
100422,72-33-3,72-33-3,C[C@]12CC[C@H]3[C@@H](CCc4cc(ccc43)OC)[C@@H]1CC[C@@]2(O)C#C,Mestranol,Mestranol,"(17beta)-17-ethynyl-3-methoxyestra-1,3,5(10)-trien-17-ol",27780,DTXSID0020814,CC12CCC3C(CCc4cc(ccc43)OC)C1CCC2(O)C#C,"InChI=1S/C21H26O2/c1-4-21(22)12-10-19-18-7-5-14-13-15(23-3)6-8-16(14)17(18)9-11-20(19,21)2/h1,6,8,13,17-19,22H,5,7,9-12H2,2-3H3",IMSSROKUHAOUJS-UHFFFAOYSA-N,?,,150.5,100422
100423,72-43-5,72-43-5,COc1ccc(cc1)C(c1ccc(cc1)OC)C(Cl)(Cl)Cl,METHOXYCHLOR,Methoxychlor,"1,1'-(2,2,2-trichloroethane-1,1-diyl)bis(4-methoxybenzene)",27781,DTXSID9020827,COc1ccc(cc1)C(c1ccc(cc1)OC)C(Cl)(Cl)Cl,"InChI=1S/C16H15Cl3O2/c1-20-13-7-3-11(4-8-13)15(16(17,18)19)12-5-9-14(21-2)10-6-12/h3-10,15H,1-2H3",IAKOZHOLGAGEJT-UHFFFAOYSA-N,?,,87.0,100423
100425,72-48-0,72-48-0,Oc1ccc2c(C(=O)c3ccccc3C2=O)c1O,ALIZARINE,Alizarin,"1,2-dihydroxyanthracene-9,10-dione",27783,DTXSID5045960,Oc1ccc2c(C(=O)c3ccccc3C2=O)c1O,"InChI=1S/C14H8O4/c15-10-6-5-9-11(14(10)18)13(17)8-4-2-1-3-7(8)12(9)16/h1-6,15,18H",RGCKGOZRHPZPFP-UHFFFAOYSA-N,?,,289.5,100425
100426,72-54-8,72-54-8,ClC(Cl)C(c1ccc(Cl)cc1)c1ccc(Cl)cc1,"P,P'-DDD","p,p'-DDD","1,1'-(2,2-dichloroethane-1,1-diyl)bis(4-chlorobenzene)",27784,DTXSID4020373,ClC(Cl)C(c1ccc(Cl)cc1)c1ccc(Cl)cc1,"InChI=1S/C14H10Cl4/c15-11-5-1-9(2-6-11)13(14(17)18)10-3-7-12(16)8-4-10/h1-8,13-14H",AHJKRLASYNVKDZ-UHFFFAOYSA-N,?,,109.5,100426
100427,72-55-9,72-55-9,ClC(Cl)=C(c1ccc(Cl)cc1)c1ccc(Cl)cc1,"P,P'-DDE","p,p'-DDE","1,1'-(2,2-dichloroethene-1,1-diyl)bis(4-chlorobenzene)",27785,DTXSID9020374,ClC(Cl)=C(c1ccc(Cl)cc1)c1ccc(Cl)cc1,InChI=1S/C14H8Cl4/c15-11-5-1-9(2-6-11)13(14(17)18)10-3-7-12(16)8-4-10/h1-8H,UCNVFOCBFJOQAL-UHFFFAOYSA-N,?,,89.0,100427
100429,72-63-9,72-63-9,C[C@]12CC[C@H]3[C@@H](CCC4=CC(=O)C=C[C@@]43C)[C@@H]1CC[C@]2(C)O,Methandrostenolone,Methandrostenolone,"(17beta)-17-hydroxy-17-methylandrosta-1,4-dien-3-one",27787,DTXSID2023276,CC12CCC3C(CCC4=CC(=O)C=CC43C)C1CCC2(C)O,"InChI=1S/C20H28O2/c1-18-9-6-14(21)12-13(18)4-5-15-16(18)7-10-19(2)17(15)8-11-20(19,3)22/h6,9,12,15-17,22H,4-5,7-8,10-11H2,1-3H3",XWALNWXLMVGSFR-UHFFFAOYSA-N,?,,163.5,100429
100430,72-80-0,72-80-0,Cc1ccc2c([n]1)c(O)c(Cl)cc2Cl,Chlorquinaldol,"5,7-Dichloro-8-hydroxy-2-methylquinoline","5,7-dichloro-2-methylquinolin-8-ol",27788,DTXSID3048998,Cc1ccc2c([n]1)c(O)c(Cl)cc2Cl,"InChI=1S/C10H7Cl2NO/c1-5-2-3-6-7(11)4-8(12)10(14)9(6)13-5/h2-4,14H,1H3",GPTXWRGISTZRIO-UHFFFAOYSA-N,?,,114.5,100430
100431,73-03-0,73-03-0,Nc1[n]c[n]c2c1[n]c[n]2[C@@H]1O[C@@H](C[C@H]1O)CO,Cordycepin,Cordycepin,3'-deoxyadenosine,27789,DTXSID1041007,Nc1[n]c[n]c2c1[n]c[n]2C1OC(CC1O)CO,"InChI=1S/C10H13N5O3/c11-8-7-9(13-3-12-8)15(4-14-7)10-6(17)1-5(2-16)18-10/h3-6,10,16-17H,1-2H2,(H2,11,12,13)",OFEZSBMBBKLLBJ-UHFFFAOYSA-N,?,,225.5,100431
100434,73-31-4,73-31-4,CC(=O)NCCc1c[nH]c2ccc(cc12)OC,MELATONIN,Melatonin,C13H16N2O2,27791,DTXSID1022421,CC(=O)NCCc1c[nH]c2ccc(cc12)OC,"InChI=1S/C13H16N2O2/c1-9(16)14-6-5-10-8-15-13-4-3-11(17-2)7-12(10)13/h3-4,7-8,15H,5-6H2,1-2H3,(H,14,16)",DRLFMBDRBRZALE-UHFFFAOYSA-N,?,,117.0,100434
100435,73-48-3,73-48-3,NS(=O)(=O)c1cc2c(cc1C(F)(F)F)NC(Cc1ccccc1)NS2(=O)=O,BENDROFLUMETHIAZIDE,Bendroflumethiazide,"3-benzyl-6-(trifluoromethyl)-3,4-dihydro-2H-1,2,4-benzothiadiazine-7-sulfonamide 1,1-dioxide",27792,DTXSID5022647,NS(=O)(=O)c1cc2c(cc1C(F)(F)F)NC(Cc1ccccc1)NS2(=O)=O,"InChI=1S/C15H14F3N3O4S2/c16-15(17,18)10-7-11-13(8-12(10)26(19,22)23)27(24,25)21-14(20-11)6-9-4-2-1-3-5-9/h1-5,7-8,14,20-21H,6H2,(H2,19,22,23)",HDWIHXWEUNVBIY-UHFFFAOYSA-N,?,,222.0,100435
100436,73-49-4,73-49-4,CCC1NC(=O)c2cc(c(Cl)cc2N1)S(N)(=O)=O,Quinethazone,Quinethazone,"7-chloro-2-ethyl-4-oxo-1,2,3,4-tetrahydroquinazoline-6-sulfonamide",27793,DTXSID9023548,CCC1NC(=O)c2cc(c(Cl)cc2N1)S(N)(=O)=O,"InChI=1S/C10H12ClN3O3S/c1-2-9-13-7-4-6(11)8(18(12,16)17)3-5(7)10(15)14-9/h3-4,9,13H,2H2,1H3,(H,14,15)(H2,12,16,17)",AGMMTXLNIQSRCG-UHFFFAOYSA-N,?,,251.0,100436
100438,73-78-9,73-78-9,Cl.CCN(CC(=O)Nc1c(C)cccc1C)CC,Lidocaine hydrochloride,"Acetamide, 2-(diethylamino)-N-(2,6-dimethylphenyl)-, monohydrochloride",,27795,DTXSID4058782,CCN(CC(=O)Nc1c(C)cccc1C)CC,"InChI=1S/C14H22N2O/c1-5-16(6-2)10-13(17)15-14-11(3)8-7-9-12(14)4/h7-9H,5-6,10H2,1-4H3,(H,15,17)",NNJVILVZKWQKPM-UHFFFAOYSA-N,Cl,18179,77.5,100438
100439,74-11-3,74-11-3,OC(=O)c1ccc(Cl)cc1,4-CHLOROBENZOIC ACID,4-Chlorobenzoic acid,4-chlorobenzoic acid,27796,DTXSID9024772,OC(=O)c1ccc(Cl)cc1,"InChI=1S/C7H5ClO2/c8-6-3-1-5(2-4-6)7(9)10/h1-4H,(H,9,10)",XRHGYUZYPHTUJZ-UHFFFAOYSA-N,?,,243.0,100439
100440,74-31-7,74-31-7,c1cc(ccc1Nc1ccccc1)Nc1ccccc1,"N,N'-DIPHENYL-P-BENZENEDIAMINE","N,N'-Diphenyl-p-phenylenediamine","N,N'-diphenylbenzene-1,4-diamine",27797,DTXSID9020538,c1cc(ccc1Nc1ccccc1)Nc1ccccc1,"InChI=1S/C18H16N2/c1-3-7-15(8-4-1)19-17-11-13-18(14-12-17)20-16-9-5-2-6-10-16/h1-14,19-20H",UTGQNNCQYDRXCH-UHFFFAOYSA-N,?,,144.0,100440
100442,74-55-5,74-55-5,CC[C@@H](CO)NCCN[C@H](CO)CC,Ethambutol,Ethambutol,"(2S,2'S)-2,2'-(ethane-1,2-diyldiimino)dibutan-1-ol",27799,DTXSID8023006,CCC(CO)NCCNC(CO)CC,"InChI=1S/C10H24N2O2/c1-3-9(7-13)11-5-6-12-10(4-2)8-14/h9-14H,3-8H2,1-2H3",AEUTYOVWOVBAKS-UHFFFAOYSA-N,?,,89.0,100442
100443,74-82-8,74-82-8,C,METHANE,Methane,methane,27800,DTXSID8025545,C,InChI=1S/CH4/h1H4,VNWKTOKETHGBQD-UHFFFAOYSA-N,?,,-182.4,100443
100444,74-83-9,74-83-9,CBr,METHYL BROMIDE,Methyl bromide,bromomethane,27801,DTXSID8020832,CBr,InChI=1S/CH3Br/c1-2/h1H3,GZUXJHMPEANEGY-UHFFFAOYSA-N,?,,-93.7,100444
100446,74-85-1,74-85-1,C=C,ETHYLENE,Ethylene,ethene,27803,DTXSID1026378,C=C,InChI=1S/C2H4/c1-2/h1-2H2,VGGSQFUCUMXWEO-UHFFFAOYSA-N,?,,-169.0,100446
100447,74-86-2,74-86-2,C#C,ACETYLENE,Ethyne,ethyne,27804,DTXSID6026379,C#C,InChI=1S/C2H2/c1-2/h1-2H,HSFWRNGVRCDJHI-UHFFFAOYSA-N,?,,-80.7,100447