ChemID,source_casrn,CAS,SMILES,NAME,preferred_name,iupac,MPID,dsstox_substance_id,Canonical_QSARr,InChI_Code_QSARr,InChI Key_QSARr,Salt_Solvent,Salt_Solvent_ID,MP,ID
108468,17609-31-3,NOCAS_871275,CC=CC=CC=CC=O,"2,4,6-OCTATRIENAL",,,35048,DTXSID80871275,CC=CC=CC=CC=O,"InChI=1S/C8H10O/c1-2-3-4-5-6-7-8-9/h2-8H,1H3/b3-2+,5-4+,7-6+",ZUZGMJKUENNLQL-ICDJNDDTSA-N,?,,56.8,108468
108472,17627-77-9,17627-77-9,COc1cc2CCN[C@@H](C)c2c(O)c1OC,ANHALONIDINE,,,35052,DTXSID60876920,COc1cc2CCNC(C)c2c(O)c1OC,"InChI=1S/C12H17NO3/c1-7-10-8(4-5-13-7)6-9(15-2)12(16-3)11(10)14/h6-7,13-14H,4-5H2,1-3H3",PRNZAMQMBOFSJY-UHFFFAOYSA-N,?,,160.5,108472
108476,17696-11-6,17696-11-6,OC(=O)CCCCCCCBr,8-BROMOOCTANOIC ACID,8-Bromooctanoic acid,C8H15BrO2,35056,DTXSID40338314,OC(=O)CCCCCCCBr,"InChI=1S/C8H15BrO2/c9-7-5-3-1-2-4-6-8(10)11/h1-7H2,(H,10,11)",BKJFDZSBZWHRNH-UHFFFAOYSA-N,?,,38.5,108476
108481,17745-45-8,17745-45-8,CCCB(O)O,"Boronic acid, propyl-",Propylboronic acid,C3H9BO2,35060,DTXSID90325794,CCCB(O)O,"InChI=1S/C3H9BO2/c1-2-3-4(5)6/h5-6H,2-3H2,1H3",JAQOMSTTXPGKTN-UHFFFAOYSA-N,?,,107.0,108481
108485,17851-27-3,17851-27-3,CCc1cc(C)c(C)cc1C,"BENZENE, 1-ETHYL-2,4,5-TRIMETHYL-","Benzene, 1-ethyl-2,4,5-trimethyl-","1-Ethyl-2,4,5-trimethylbenzene",35064,DTXSID20170496,CCc1cc(C)c(C)cc1C,"InChI=1S/C11H16/c1-5-11-7-9(3)8(2)6-10(11)4/h6-7H,5H2,1-4H3",IYFUQKGDILUVJG-UHFFFAOYSA-N,?,,-13.5,108485
108489,18046-21-4,18046-21-4,OC(=O)Cc1[s]c([n]c1-c1ccc(Cl)cc1)-c1ccccc1,FENTIAZAC,Fentiazac,"[4-(4-chlorophenyl)-2-phenyl-1,3-thiazol-5-yl]acetic acid",35068,DTXSID8023050,OC(=O)Cc1[s]c([n]c1-c1ccc(Cl)cc1)-c1ccccc1,"InChI=1S/C17H12ClNO2S/c18-13-8-6-11(7-9-13)16-14(10-15(20)21)22-17(19-16)12-4-2-1-3-5-12/h1-9H,10H2,(H,20,21)",JIEKMACRVQTPRC-UHFFFAOYSA-N,?,,161.5,108489
108494,18181-70-9,18181-70-9,COP(=S)(Oc1cc(Cl)c(I)cc1Cl)OC,IODOFENPHOS,Iodenphos,"O-(2,5-dichloro-4-iodophenyl) O,O-dimethyl phosphorothioate",35073,DTXSID8040278,COP(=S)(Oc1cc(Cl)c(I)cc1Cl)OC,"InChI=1S/C8H8Cl2IO3PS/c1-12-15(16,13-2)14-8-4-5(9)7(11)3-6(8)10/h3-4H,1-2H3",LFVLUOAHQIVABZ-UHFFFAOYSA-N,?,,72.5,108494
108498,18281-05-5,18281-05-5,CCCCCCCCCCCCCCCCCCCC(=O)OCC,ETHYL EICOSANOATE,Ethyl arachidate,Ethyl icosanoate,35077,DTXSID50171335,CCCCCCCCCCCCCCCCCCCC(=O)OCC,"InChI=1S/C22H44O2/c1-3-5-6-7-8-9-10-11-12-13-14-15-16-17-18-19-20-21-22(23)24-4-2/h3-21H2,1-2H3",YBKSMWBLSBAFBQ-UHFFFAOYSA-N,?,,50.0,108498
108505,18435-45-5,18435-45-5,CCCCCCCCCCCCCCCCCC=C,1-NONADECENE,1-Nonadecene,Nonadec-1-ene,35081,DTXSID0066377,CCCCCCCCCCCCCCCCCC=C,"InChI=1S/C19H38/c1-3-5-7-9-11-13-15-17-19-18-16-14-12-10-8-6-4-2/h3H,1,4-19H2,2H3",NHLUYCJZUXOUBX-UHFFFAOYSA-N,?,,23.0,108505
108510,18493-30-6,18493-30-6,COc1cc(ccc1C(=O)C=Cc1ccc(cc1)OC)OC,Metochalcone,Metochalcone,"1-(2,4-dimethoxyphenyl)-3-(4-methoxyphenyl)prop-2-en-1-one",35085,DTXSID9046152,COc1cc(ccc1C(=O)C=Cc1ccc(cc1)OC)OC,"InChI=1S/C18H18O4/c1-20-14-7-4-13(5-8-14)6-11-17(19)16-10-9-15(21-2)12-18(16)22-3/h4-12H,1-3H3/b11-6+",HVAKUYCEWDPRCA-IZZDOVSWSA-N,?,,97.0,108510
108516,18694-40-1,18694-40-1,COc1cc(C)[n][n]1-c1[n]c(cc(C)[n]1)OC,"PYRIMIDINE,2(5MEO-3ME-1PYRAZ)4MEO6ME",Epirizole,4-methoxy-2-(5-methoxy-3-methyl-1H-pyrazol-1-yl)-6-methylpyrimidine,35089,DTXSID4045422,COc1cc(C)[n][n]1-c1[n]c(cc(C)[n]1)OC,"InChI=1S/C11H14N4O2/c1-7-5-9(16-3)13-11(12-7)15-10(17-4)6-8(2)14-15/h5-6H,1-4H3",RHAXSHUQNIEUEY-UHFFFAOYSA-N,?,,91.0,108516
108520,18720-65-5,NOCAS_871286,CC(CC(O)CC)CC,"3-HEPTANOL, 5-METHYL-",,,35093,DTXSID90871286,CC(CC(O)CC)CC,"InChI=1S/C8H18O/c1-4-7(3)6-8(9)5-2/h7-9H,4-6H2,1-3H3",SECKOSOTZOBWEI-UHFFFAOYSA-N,?,,-91.2,108520
108525,18979-50-5,18979-50-5,CCCOc1ccc(O)cc1,"PHENOL, 4-PROPOXY-","Phenol, 4-propoxy-",4-Propoxyphenol,35097,DTXSID6066442,CCCOc1ccc(O)cc1,"InChI=1S/C9H12O2/c1-2-7-11-9-5-3-8(10)4-6-9/h3-6,10H,2,7H2,1H3",KIIIPQXXLVCCQP-UHFFFAOYSA-N,?,,56.5,108525
108529,19044-88-3,19044-88-3,CCCN(CCC)c1c(cc(cc1[N+]([O-])=O)S(N)(=O)=O)[N+]([O-])=O,ORYZALIN,Oryzalin,"4-(dipropylamino)-3,5-dinitrobenzenesulfonamide",35101,DTXSID8024238,CCCN(CCC)c1c(cc(cc1[N+]([O-])=O)S(N)(=O)=O)[N+]([O-])=O,"InChI=1S/C12H18N4O6S/c1-3-5-14(6-4-2)12-10(15(17)18)7-9(23(13,21)22)8-11(12)16(19)20/h7-8H,3-6H2,1-2H3,(H2,13,21,22)",UNAHYJYOSSSJHH-UHFFFAOYSA-N,?,,141.0,108529
108534,19184-65-7,19184-65-7,OCC(CBr)(CO)CO,MONOBROMONEOPENTYLTRIOL,"1,3-Propanediol, 2-(bromomethyl)-2-(hydroxymethyl)-","2-(Bromomethyl)-2-(hydroxymethyl)propane-1,3-diol",35105,DTXSID9066461,OCC(CBr)(CO)CO,"InChI=1S/C5H11BrO3/c6-1-5(2-7,3-8)4-9/h7-9H,1-4H2",MMHHBAUIJVTLFZ-UHFFFAOYSA-N,?,,76.0,108534
108538,19387-91-8,19387-91-8,Cc1[n]cc([n]1CCS(=O)(=O)CC)[N+]([O-])=O,TINIDAZOLE,Tinidazole,1-[2-(ethylsulfonyl)ethyl]-2-methyl-5-nitro-1H-imidazole,35109,DTXSID4023676,Cc1[n]cc([n]1CCS(=O)(=O)CC)[N+]([O-])=O,"InChI=1S/C8H13N3O4S/c1-3-16(14,15)5-4-10-7(2)9-6-8(10)11(12)13/h6H,3-5H2,1-2H3",HJLSLZFTEKNLFI-UHFFFAOYSA-N,?,,127.5,108538
108542,19398-61-9,19398-61-9,Cc1cc(Cl)ccc1Cl,"Benzene, 1,4-dichloro-2-methyl-","Benzene, 1,4-dichloro-2-methyl-","1,4-dichloro-2-methylbenzene",35113,DTXSID2066484,Cc1cc(Cl)ccc1Cl,"InChI=1S/C7H6Cl2/c1-5-4-6(8)2-3-7(5)9/h2-4H,1H3",KFAKZJUYBOYVKA-UHFFFAOYSA-N,?,,5.0,108542
108546,19472-74-3,19472-74-3,N#CCc1ccccc1Br,(2-Bromo-phenyl)-acetonitrile,2-Bromobenzyl cyanide,2-(2-bromophenyl)acetonitrile,35117,DTXSID5075315,N#CCc1ccccc1Br,"InChI=1S/C8H6BrN/c9-8-4-2-1-3-7(8)5-6-10/h1-4H,5H2",BVCOJESIQPNOIF-UHFFFAOYSA-N,?,,1.0,108546
108552,19717-25-0,19717-25-0,COc1c(cc(CC[n]2cccc2C(O)=O)cc1OC)OC,Peyonine,Peyonine,C16H19NO5,35121,DTXSID60345161,COc1c(cc(CC[n]2cccc2C(O)=O)cc1OC)OC,"InChI=1S/C16H19NO5/c1-20-13-9-11(10-14(21-2)15(13)22-3)6-8-17-7-4-5-12(17)16(18)19/h4-5,7,9-10H,6,8H2,1-3H3,(H,18,19)",DDYNENGLSGKEPO-UHFFFAOYSA-N,?,,132.0,108552
108556,19752-55-7,19752-55-7,Clc1cc(Br)cc(Cl)c1,"Benzene, 1-bromo-3,5-dichloro-","Benzene, 1-bromo-3,5-dichloro-","1-BROMO-3,5-DICHLOROBENZENE",35125,DTXSID1066524,Clc1cc(Br)cc(Cl)c1,InChI=1S/C6H3BrCl2/c7-4-1-5(8)3-6(9)2-4/h1-3H,DZHFFMWJXJBBRG-UHFFFAOYSA-N,?,,83.0,108556
108560,19812-64-7,19812-64-7,OCCCCCCCCCCCCCCO,"1,14-Tetradecanediol","1,14-Tetradecanediol","tetradecane-1,14-diol",35129,DTXSID5066534,OCCCCCCCCCCCCCCO,"InChI=1S/C14H30O2/c15-13-11-9-7-5-3-1-2-4-6-8-10-12-14-16/h15-16H,1-14H2",XLKZJJVNBQCVIX-UHFFFAOYSA-N,?,,85.8,108560
108564,19942-78-0,19942-78-0,CCCCCCCCSC#N,1-Thiocyanato-octane,Octyl thiocyanate,1-Thiocyanatooctane,35133,DTXSID90173717,CCCCCCCCSC#N,"InChI=1S/C9H17NS/c1-2-3-4-5-6-7-8-11-9-10/h2-8H2,1H3",FGVYCHQRRXDRAR-UHFFFAOYSA-N,?,,105.0,108564
108568,20098-48-0,20098-48-0,[O-][N+](=O)c1cc(Cl)c(Cl)c(Cl)c1,"1,2,3-Trichloro-5-nitro-benzene","3,4,5-Trichloronitrobenzene","1,2,3-trichloro-5-nitrobenzene",35137,DTXSID5026205,[O-][N+](=O)c1cc(Cl)c(Cl)c(Cl)c1,InChI=1S/C6H2Cl3NO2/c7-4-1-3(10(11)12)2-5(8)6(4)9/h1-2H,HHLCSFGOTLUREE-UHFFFAOYSA-N,?,,72.5,108568
108579,20442-79-9,20442-79-9,Ic1cc(ccc1)-c1ccccc1,"1,1'-Biphenyl, 3-iodo-","1,1'-Biphenyl, 3-iodo-",1-iodo-3-phenylbenzene,35145,DTXSID5066615,Ic1cc(ccc1)-c1ccccc1,InChI=1S/C12H9I/c13-12-8-4-7-11(9-12)10-5-2-1-3-6-10/h1-9H,KAQUBIATNWQNRE-UHFFFAOYSA-N,?,,26.5,108579
108583,20725-03-5,NOCAS_871986,OC1C(Oc2cc(O)ccc2C1=O)c1cc(O)c(O)cc1,FUSTIN,,,35149,DTXSID70871986,OC1C(Oc2cc(O)ccc2C1=O)c1cc(O)c(O)cc1,"InChI=1S/C15H12O6/c16-8-2-3-9-12(6-8)21-15(14(20)13(9)19)7-1-4-10(17)11(18)5-7/h1-6,14-18,20H",FNUPUYFWZXZMIE-UHFFFAOYSA-N,?,,227.0,108583
108587,20831-76-9,20831-76-9,C=C[C@H]1[C@@H](OC=C2C(=O)OCC=C21)O[C@@H]1O[C@H](CO)[C@@H](O)[C@H](O)[C@H]1O,Gentiopicrin,,,35153,DTXSID40878043,C=CC1C(OC=C2C(=O)OCC=C21)OC1OC(CO)C(O)C(O)C1O,"InChI=1S/C16H20O9/c1-2-7-8-3-4-22-14(21)9(8)6-23-15(7)25-16-13(20)12(19)11(18)10(5-17)24-16/h2-3,6-7,10-13,15-20H,1,4-5H2",DUAGQYUORDTXOR-UHFFFAOYSA-N,?,,191.0,108587
108591,21040-59-5,NOCAS_871988,CN1CCc2cc(OC)c(O)cc2C1Cc1cc(OC)c(cc1)OC,Codamine,,,35157,DTXSID90871988,CN1CCc2cc(OC)c(O)cc2C1Cc1cc(OC)c(cc1)OC,"InChI=1S/C20H25NO4/c1-21-8-7-14-11-19(24-3)17(22)12-15(14)16(21)9-13-5-6-18(23-2)20(10-13)25-4/h5-6,10-12,16,22H,7-9H2,1-4H3",OKORHWXYDBSYNO-UHFFFAOYSA-N,?,,127.0,108591
108595,21256-18-8,21256-18-8,OC(=O)CCc1[n]c(c(o1)-c1ccccc1)-c1ccccc1,Oxaprozin,Oxaprozin,"3-(4,5-diphenyl-1,3-oxazol-2-yl)propanoic acid",35161,DTXSID1045118,OC(=O)CCc1[n]c(c(o1)-c1ccccc1)-c1ccccc1,"InChI=1S/C18H15NO3/c20-16(21)12-11-15-19-17(13-7-3-1-4-8-13)18(22-15)14-9-5-2-6-10-14/h1-10H,11-12H2,(H,20,21)",OFPXSFXSNFPTHF-UHFFFAOYSA-N,?,,160.75,108595
108599,21296-92-4,21296-92-4,Cc1cc2c(cc1)[nH]c(C)c2C,"1H-INDOLE, 2,3,5-TRIMETHYL-","Indole, 2,3,5-trimethyl-","2,3,5-trimethyl-1H-indole",35165,DTXSID60175561,Cc1cc2c(cc1)[nH]c(C)c2C,"InChI=1S/C11H13N/c1-7-4-5-11-10(6-7)8(2)9(3)12-11/h4-6,12H,1-3H3",HOFNMMIHFZBKPW-UHFFFAOYSA-N,?,,121.5,108599
108606,21564-92-1,NOCAS_871325,CC1Cc2ccccc2CC1C,"NAPHTHALENE, 1,2,3,4-TETRAHYDRO-2,3-DIMETHYL-",,,35170,DTXSID70871325,CC1Cc2ccccc2CC1C,"InChI=1S/C12H16/c1-9-7-11-5-3-4-6-12(11)8-10(9)2/h3-6,9-10H,7-8H2,1-2H3",NJOXXZPRVMTBBP-UHFFFAOYSA-N,?,,-5.0,108606
108610,21617-18-5,21617-18-5,Clc1cc[n]c2cccc(Cl)c12,"4,5-Dichloro-quinoline","4,5-dichloroquinoline",C9H5Cl2N,35174,DTXSID20302230,Clc1cc[n]c2cccc(Cl)c12,InChI=1S/C9H5Cl2N/c10-6-2-1-3-8-9(6)7(11)4-5-12-8/h1-5H,SNZMBGPVGUVXRP-UHFFFAOYSA-N,?,,118.0,108610
108615,21738-42-1,21738-42-1,CC(C)NCC1CCc2cc(CO)c(cc2N1)[N+]([O-])=O,"6-QUINOLINEMETHANOL, 1,2,3,4-TETRAHYDRO-2-[[(1-M",Oxamniquine,"{7-nitro-2-[(propan-2-ylamino)methyl]-1,2,3,4-tetrahydroquinolin-6-yl}methanol",35178,DTXSID3023398,CC(C)NCC1CCc2cc(CO)c(cc2N1)[N+]([O-])=O,"InChI=1S/C14H21N3O3/c1-9(2)15-7-12-4-3-10-5-11(8-18)14(17(19)20)6-13(10)16-12/h5-6,9,12,15-16,18H,3-4,7-8H2,1-2H3",XCGYUJZMCCFSRP-UHFFFAOYSA-N,?,,148.0,108615
108620,21987-21-3,NOCAS_871331,CC(C)CCCCCCCCCCCO,"1-TRIDECANOL, 12-METHYL-",,,35182,DTXSID80871331,CC(C)CCCCCCCCCCCO,"InChI=1S/C14H30O/c1-14(2)12-10-8-6-4-3-5-7-9-11-13-15/h14-15H,3-13H2,1-2H3",ZXUOFCUEFQCKKH-UHFFFAOYSA-N,?,,10.5,108620
108624,22089-22-1,NOCAS_865031,O=P1(OCCCN1CCCl)N(CCCl)CCCl,Trofosfamide,,,35186,DTXSID60865031,O=P1(OCCCN1CCCl)N(CCCl)CCCl,"InChI=1S/C9H18Cl3N2O2P/c10-2-6-13-5-1-9-16-17(13,15)14(7-3-11)8-4-12/h1-9H2",UMKFEPPTGMDVMI-UHFFFAOYSA-N,?,,50.5,108624
108628,22224-92-6,22224-92-6,Cc1cc(ccc1SC)OP(=O)(NC(C)C)OCC,FENAMIPHOS,Fenamiphos,ethyl 3-methyl-4-(methylsulfanyl)phenyl propan-2-ylphosphoramidate,35190,DTXSID3024102,Cc1cc(ccc1SC)OP(=O)(NC(C)C)OCC,"InChI=1S/C13H22NO3PS/c1-6-16-18(15,14-10(2)3)17-12-7-8-13(19-5)11(4)9-12/h7-10H,6H2,1-5H3,(H,14,15)",ZCJPOPBZHLUFHF-UHFFFAOYSA-N,?,,49.0,108628
108633,22345-47-7,22345-47-7,CC1=NN=C(c2cc(OC)c(cc2C1CC)OC)c1ccc(OC)c(c1)OC,Tofisopam,Tofisopam,"1-(3,4-dimethoxyphenyl)-5-ethyl-7,8-dimethoxy-4-methyl-5H-2,3-benzodiazepine",35195,DTXSID3023681,CC1=NN=C(c2cc(OC)c(cc2C1CC)OC)c1ccc(OC)c(c1)OC,"InChI=1S/C22H26N2O4/c1-7-15-13(2)23-24-22(14-8-9-18(25-3)19(10-14)26-4)17-12-21(28-6)20(27-5)11-16(15)17/h8-12,15H,7H2,1-6H3",RUJBDQSFYCKFAA-UHFFFAOYSA-N,?,,156.5,108633
108638,22494-47-9,22494-47-9,CC(C)(OCc1ccc(cc1)-c1ccc(Cl)cc1)C(O)=O,Clobuzarit,Clobuzarit,2-[(4'-chlorobiphenyl-4-yl)methoxy]-2-methylpropanoic acid,35200,DTXSID8020335,CC(C)(OCc1ccc(cc1)-c1ccc(Cl)cc1)C(O)=O,"InChI=1S/C17H17ClO3/c1-17(2,16(19)20)21-11-12-3-5-13(6-4-12)14-7-9-15(18)10-8-14/h3-10H,11H2,1-2H3,(H,19,20)",UGOFYAXVVVXMQT-UHFFFAOYSA-N,?,,154.5,108638
108642,22618-23-1,22618-23-1,Cc1cc(ccc1C)OC(C)=O,"Acetic acid 3,4-dimethyl-phenyl ester","3,4-Xylyl acetate","(3,4-dimethylphenyl) acetate",35204,DTXSID10177136,Cc1cc(ccc1C)OC(C)=O,"InChI=1S/C10H12O2/c1-7-4-5-10(6-8(7)2)12-9(3)11/h4-6H,1-3H3",ZFIOOTIKKICLOR-UHFFFAOYSA-N,?,,22.0,108642
108646,22699-70-3,22699-70-3,CC(=O)c1cc(CC)ccc1,3-ETHYLACETOPHENONE,"Acetophenone, 3-ethyl-",1-(3-Ethylphenyl)ethanone,35208,DTXSID20177223,CC(=O)c1cc(CC)ccc1,"InChI=1S/C10H12O/c1-3-9-5-4-6-10(7-9)8(2)11/h4-7H,3H2,1-2H3",ZRYRILAFFDKOPB-UHFFFAOYSA-N,?,,-20.0,108646
108650,22760-18-5,22760-18-5,Cc1cc2c(cc1)C(=NC(=O)N2C(C)C)c1ccccc1,Proquazone,Proquazone,7-methyl-4-phenyl-1-(propan-2-yl)quinazolin-2(1H)-one,35212,DTXSID4021210,Cc1cc2c(cc1)C(=NC(=O)N2C(C)C)c1ccccc1,"InChI=1S/C18H18N2O/c1-12(2)20-16-11-13(3)9-10-15(16)17(19-18(20)21)14-7-5-4-6-8-14/h4-12H,1-3H3",JTIGKVIOEQASGT-UHFFFAOYSA-N,?,,137.5,108650
108654,22862-76-6,22862-76-6,CC(=O)O[C@@H]1[C@@H](O)CN[C@@H]1Cc1ccc(cc1)OC,Anisomycin,Anisomycin,"(2R,3S,4S)-4-hydroxy-2-(4-methoxybenzyl)pyrrolidin-3-yl acetate",35216,DTXSID5040966,CC(=O)OC1C(O)CNC1Cc1ccc(cc1)OC,"InChI=1S/C14H19NO4/c1-9(16)19-14-12(15-8-13(14)17)7-10-3-5-11(18-2)6-4-10/h3-6,12-15,17H,7-8H2,1-2H3",YKJYKKNCCRKFSL-UHFFFAOYSA-N,?,,140.5,108654
108658,23047-25-8,23047-25-8,CN(CCCN1c2ccccc2CCc2ccccc12)CC(=O)c1ccc(Cl)cc1,Lofepramine,Lofepramine,"1-(4-chlorophenyl)-2-{[3-(10,11-dihydro-5H-dibenzo[b,f]azepin-5-yl)propyl](methyl)amino}ethanone",35220,DTXSID2023220,CN(CCCN1c2ccccc2CCc2ccccc12)CC(=O)c1ccc(Cl)cc1,"InChI=1S/C26H27ClN2O/c1-28(19-26(30)22-13-15-23(27)16-14-22)17-6-18-29-24-9-4-2-7-20(24)11-12-21-8-3-5-10-25(21)29/h2-5,7-10,13-16H,6,11-12,17-19H2,1H3",SAPNXPWPAUFAJU-UHFFFAOYSA-N,?,,105.0,108658
108662,23110-15-8,23110-15-8,C[C@@]1(O[C@@H]1CC=C(C)C)[C@H]1[C@H](OC)[C@@H](CC[C@@]21CO2)OC(=O)/C=C/C=C/C=C/C=C/C(O)=O,Fumagillin,Fumagillin,"(2E,4E,6E,8E)-10-({(3R,4S,5S,6R)-5-methoxy-4-[(2R,3R)-2-methyl-3-(3-methylbut-2-en-1-yl)oxiran-2-yl]-1-oxaspiro[2.5]oct-6-yl}oxy)-10-oxodeca-2,4,6,8-tetraenoic acid",35224,DTXSID7040736,CC1(OC1CC=C(C)C)C1C(OC)C(CCC21CO2)OC(=O)C=CC=CC=CC=CC(O)=O,"InChI=1S/C26H34O7/c1-18(2)13-14-20-25(3,33-20)24-23(30-4)19(15-16-26(24)17-31-26)32-22(29)12-10-8-6-5-7-9-11-21(27)28/h5-13,19-20,23-24H,14-17H2,1-4H3,(H,27,28)/b7-5+,8-6+,11-9+,12-10+",NGGMYCMLYOUNGM-HCNIIHBUSA-N,?,,194.5,108662
108666,23184-66-9,23184-66-9,CCCCOCN(C(=O)CCl)c1c(CC)cccc1CC,BUTACHLOR,Butachlor,"N-(butoxymethyl)-2-chloro-N-(2,6-diethylphenyl)acetamide",35228,DTXSID3034402,CCCCOCN(C(=O)CCl)c1c(CC)cccc1CC,"InChI=1S/C17H26ClNO2/c1-4-7-11-21-13-19(16(20)12-18)17-14(5-2)9-8-10-15(17)6-3/h8-10H,4-7,11-13H2,1-3H3",HKPHPIREJKHECO-UHFFFAOYSA-N,?,,-2.8,108666
108670,23256-30-6,23256-30-6,CC1CS(=O)(=O)CCN1N=Cc1ccc(o1)[N+]([O-])=O,Nifurtimox,Nifurtimox,"N-(3-methyl-1,1-dioxidothiomorpholin-4-yl)-1-(5-nitrofuran-2-yl)methanimine",35232,DTXSID3045439,CC1CS(=O)(=O)CCN1N=Cc1ccc(o1)[N+]([O-])=O,"InChI=1S/C10H13N3O5S/c1-8-7-19(16,17)5-4-12(8)11-6-9-2-3-10(18-9)13(14)15/h2-3,6,8H,4-5,7H2,1H3/b11-6+",ARFHIAQFJWUCFH-IZZDOVSWSA-N,?,,181.0,108670
108676,23593-75-1,23593-75-1,Clc1ccccc1C(c1ccccc1)(c1ccccc1)[n]1c[n]cc1,Clotrimazole,Clotrimazole,1-[(2-chlorophenyl)(diphenyl)methyl]-1H-imidazole,35236,DTXSID7029871,Clc1ccccc1C(c1ccccc1)(c1ccccc1)[n]1c[n]cc1,"InChI=1S/C22H17ClN2/c23-21-14-8-7-13-20(21)22(25-16-15-24-17-25,18-9-3-1-4-10-18)19-11-5-2-6-12-19/h1-17H",VNFPBHJOKIVQEB-UHFFFAOYSA-N,?,,148.0,108676
108681,23779-99-9,23779-99-9,OCC(O)COC(=O)c1ccccc1Nc1cc[n]c2c1cccc2C(F)(F)F,Floctafenine,Floctafenine,"2,3-dihydroxypropyl 2-{[8-(trifluoromethyl)quinolin-4-yl]amino}benzoate",35240,DTXSID8057695,OCC(O)COC(=O)c1ccccc1Nc1cc[n]c2c1cccc2C(F)(F)F,"InChI=1S/C20H17F3N2O4/c21-20(22,23)15-6-3-5-13-17(8-9-24-18(13)15)25-16-7-2-1-4-14(16)19(28)29-11-12(27)10-26/h1-9,12,26-27H,10-11H2,(H,24,25)",APQPGQGAWABJLN-UHFFFAOYSA-N,?,,179.5,108681
108685,23945-44-0,23945-44-0,Oc1[n]cc(C(O)=O)c(O)[n]1,"5-PYRIMIDINECARBOXYLIC ACID, 1,2,3,4-TETRAHYDRO-","5-Pyrimidinecarboxylic acid, 1,2,3,4-tetrahydro-2,4-dioxo-",,35244,DTXSID1066942,Oc1[n]cc(C(O)=O)c(O)[n]1,"InChI=1S/C5H4N2O4/c8-3-2(4(9)10)1-6-5(11)7-3/h1H,(H,9,10)(H2,6,7,8,11)",ZXYAAVBXHKCJJB-UHFFFAOYSA-N,?,,283.0,108685
108689,24237-54-5,24237-54-5,CCOC(=O)c1c(N)[s]c2CN(Cc3ccccc3)CCc21,Tinoridine,Tinoridine,"ethyl 2-amino-6-benzyl-4,5,6,7-tetrahydrothieno[2,3-c]pyridine-3-carboxylate",35248,DTXSID9023677,CCOC(=O)c1c(N)[s]c2CN(Cc3ccccc3)CCc21,"InChI=1S/C17H20N2O2S/c1-2-21-17(20)15-13-8-9-19(11-14(13)22-16(15)18)10-12-6-4-3-5-7-12/h3-7H,2,8-11,18H2,1H3",PFENFDGYVLAFBR-UHFFFAOYSA-N,?,,112.5,108689
108693,24356-94-3,24356-94-3,CC(=O)[C@@]12O[C@@](C)(O[C@@H]1C[C@H]1[C@@H]3CCC4=CC(=O)CC[C@]4(C)[C@H]3CC[C@]21C)c1ccccc1,Algestone Acetophenide,Deladroxone,"(4aR,4bS,6aS,6bS,8R,9aR,10aS,10bR)-6b-acetyl-4a,6a,8-trimethyl-8-phenyl-3,4,4a,4b,5,6,6a,6b,9a,10,10a,10b,11,12-tetradecahydro-2H-naphtho[2',1':4,5]indeno[1,2-d][1,3]dioxol-2-one",35252,DTXSID1022891,CC(=O)C12OC(C)(OC1CC1C3CCC4=CC(=O)CCC4(C)C3CCC21C)c1ccccc1,"InChI=1S/C29H36O4/c1-18(30)29-25(32-28(4,33-29)19-8-6-5-7-9-19)17-24-22-11-10-20-16-21(31)12-14-26(20,2)23(22)13-15-27(24,29)3/h5-9,16,22-25H,10-15,17H2,1-4H3",AHBKIEXBQNRDNL-UHFFFAOYSA-N,?,,150.5,108693
108697,24478-72-6,30402-14-3,Clc1c2oc3ccccc3c2c(Cl)c(Cl)c1Cl,"DIBENZOFURAN, 1,2,3,4-TETRACHLORO-",Tetrachlorodibenzofuran,"1,2,3,4-TETRACHLORODIBENZOFURAN",35256,DTXSID5067556,Clc1c2oc3ccccc3c2c(Cl)c(Cl)c1Cl,InChI=1S/C12H4Cl4O/c13-8-7-5-3-1-2-4-6(5)17-12(7)11(16)10(15)9(8)14/h1-4H,AETAPIFVELRIDN-UHFFFAOYSA-N,?,,169.0,108697
108701,24549-06-2,24549-06-2,Cc1cccc(CC)c1N,"Benzenamine, 2-ethyl-6-methyl-",2-Ethyl-6-methylaniline,2-ethyl-6-methylaniline,35260,DTXSID7027833,Cc1cccc(CC)c1N,"InChI=1S/C9H13N/c1-3-8-6-4-5-7(2)9(8)10/h4-6H,3,10H2,1-2H3",JJVKJJNCIILLRP-UHFFFAOYSA-N,?,,-33.0,108701
108706,24851-98-7,24851-98-7,CCCCCC1C(CCC1=O)CC(=O)OC,"Cyclopentaneacetic acid, 3-oxo-2-pentyl-, methyl",Methyl dihydrojasmonate,methyl (3-oxo-2-pentylcyclopentyl)acetate,35264,DTXSID2029325,CCCCCC1C(CCC1=O)CC(=O)OC,"InChI=1S/C13H22O3/c1-3-4-5-6-11-10(7-8-12(11)14)9-13(15)16-2/h10-11H,3-9H2,1-2H3",KVWWIYGFBYDJQC-UHFFFAOYSA-N,?,,-10.0,108706
108712,25044-01-3,25044-01-3,CC(=C)C(=O)CC,"1-PENTEN-3-ONE, 2-METHYL-","1-Penten-3-one, 2-methyl-",2-methylpent-1-en-3-one,35269,DTXSID1073448,CC(=C)C(=O)CC,"InChI=1S/C6H10O/c1-4-6(7)5(2)3/h2,4H2,1,3H3",GHHGVSCQWPVENX-UHFFFAOYSA-N,?,,-69.5,108712
108717,25117-74-2,25117-74-2,CCOc1ccc(cc1)C#N,"BENZONITRILE, 4-ETHOXY-",4-Ethoxybenzoic acid nitrile,4-ethoxybenzonitrile,35273,DTXSID00179806,CCOc1ccc(cc1)C#N,"InChI=1S/C9H9NO/c1-2-11-9-5-3-8(7-10)4-6-9/h3-6H,2H2,1H3",PJRLUGQMEZZDIY-UHFFFAOYSA-N,?,,61.5,108717
108721,25140-86-7|76466-16-5,NOCAS_871343,CC(Oc1ccccc1Cl)C(O)=O,"Propanoic acid, 2-(2-chlorophenoxy)-, 2-(2-Chlorophenoxy)propanoic acid",,,35277|35944,DTXSID50871343,CC(Oc1ccccc1Cl)C(O)=O,"InChI=1S/C9H9ClO3/c1-6(9(11)12)13-8-5-3-2-4-7(8)10/h2-6H,1H3,(H,11,12)",ZGWNXHRVUJVMCP-UHFFFAOYSA-N,?,,113.5,108721
108728,25312-65-6,NOCAS_871345,C[C@H](CCC(O)=O)[C@H]1CC[C@H]2[C@@H]3CCC4CCCC[C@]4(C)[C@H]3CC[C@@]21C,Cholanic Acid,,,35283,DTXSID70871345,CC(CCC(O)=O)C1CCC2C3CCC4CCCCC4(C)C3CCC21C,"InChI=1S/C24H40O2/c1-16(7-12-22(25)26)19-10-11-20-18-9-8-17-6-4-5-14-23(17,2)21(18)13-15-24(19,20)3/h16-21H,4-15H2,1-3H3,(H,25,26)",RPKLZQLYODPWTM-UHFFFAOYSA-N,?,,163.5,108728
108736,25366-23-8,25366-23-8,CNC(=O)N(C)c1[n][n]c([s]1)C(F)(F)F,THIAZAFLURON,Thiazafluron [BSI:ISO],"1,3-dimethyl-1-[5-(trifluoromethyl)-1,3,4-thiadiazol-2-yl]urea",35287,DTXSID20180010,CNC(=O)N(C)c1[n][n]c([s]1)C(F)(F)F,"InChI=1S/C6H7F3N4OS/c1-10-4(14)13(2)5-12-11-3(15-5)6(7,8)9/h1-2H3,(H,10,14)",BBJPZPLAZVZTGR-UHFFFAOYSA-N,?,,136.5,108736
108744,25542-62-5,25542-62-5,CCOC(=O)CCCCCBr,6-Bromo-hexanoic acid ethyl ester,Ethyl 6-bromohexanoate,Ethyl 6-bromohexanoate,35291,DTXSID60180236,CCOC(=O)CCCCCBr,"InChI=1S/C8H15BrO2/c1-2-11-8(10)6-4-3-5-7-9/h2-7H2,1H3",DXBULVYHTICWKT-UHFFFAOYSA-N,?,,33.0,108744
108749,25717-80-0,25717-80-0,CCOC(=O)[N-]c1c[n+]([n]o1)N1CCOCC1,Molsidomine,Molsidomine,"(ethoxycarbonyl)[3-(morpholin-4-yl)-1,2,3-oxadiazol-3-ium-5-yl]azanide",35295,DTXSID0045171,CCOC(=O)Nc1c[n+]([n]o1)N1CCOCC1,"InChI=1S/C9H14N4O4/c1-2-16-9(14)10-8-7-13(11-17-8)12-3-5-15-6-4-12/h7H,2-6H2,1H3/p+1",XLFWDASMENKTKL-UHFFFAOYSA-O,?,,140.5,108749
108753,25905-77-5,25905-77-5,Cc1cc([n][n]c1NCCN1CCOCC1)-c1ccccc1,MINAPRINE,Minaprine,4-methyl-N-[2-(morpholin-4-yl)ethyl]-6-phenylpyridazin-3-amine,35299,DTXSID5048477,Cc1cc([n][n]c1NCCN1CCOCC1)-c1ccccc1,"InChI=1S/C17H22N4O/c1-14-13-16(15-5-3-2-4-6-15)19-20-17(14)18-7-8-21-9-11-22-12-10-21/h2-6,13H,7-12H2,1H3,(H,18,20)",LDMWSLGGVTVJPG-UHFFFAOYSA-N,?,,122.0,108753