ChemID,source_casrn,CAS,SMILES,NAME,preferred_name,iupac,MPID,dsstox_substance_id,Canonical_QSARr,InChI_Code_QSARr,InChI Key_QSARr,Salt_Solvent,BP,ID
100902,107-22-2,107-22-2,O=CC=O,GLYOXAL,Glyoxal,ethanedial,19969,DTXSID5025364,O=CC=O,InChI=1S/C2H2O2/c3-1-2-4/h1-2H,LEQAOMBKQFMDFZ-UHFFFAOYSA-N,?,50.4,100902
100903,107-25-5,107-25-5,COC=C,METHYLVINYLETHER,Methoxyethene,ethenyl methyl ether,19970,DTXSID4026761,COC=C,"InChI=1S/C3H6O/c1-3-4-2/h3H,1H2,2H3",XJRBAMWJDBPFIM-UHFFFAOYSA-N,?,5.5,100903
100905,107-30-2,107-30-2,COCCl,CHLOROMETHOXYMETHANE,Chloromethyl methyl ether,chloro(methoxy)methane,19972,DTXSID6020307,COCCl,"InChI=1S/C2H5ClO/c1-4-2-3/h2H2,1H3",XJUZRXYOEPSWMB-UHFFFAOYSA-N,?,59.5,100905
100906,107-31-3,107-31-3,COC=O,METHYLFORMATE,Methyl formate,methyl formate,19973,DTXSID5025609,COC=O,"InChI=1S/C2H4O2/c1-4-2-3/h2H,1H3",TZIHFWKZFHZASV-UHFFFAOYSA-N,?,31.7,100906
100907,107-37-9,107-37-9,C=CC[Si](Cl)(Cl)Cl,ALLYTRICHLOROSILANE,"Silane, trichloro-2-propen-1-yl-",trichloro-prop-2-enylsilane,19974,DTXSID3059347,C=CC[Si](Cl)(Cl)Cl,"InChI=1S/C3H5Cl3Si/c1-2-3-7(4,5)6/h2H,1,3H2",HKFSBKQQYCMCKO-UHFFFAOYSA-N,?,117.5,100907
100909,107-40-4,107-40-4,CC(C)=CC(C)(C)C,"2,4,4-TRIMETHYL-2-PENTENE","2,4,4-Trimethyl-2-pentene","2,4,4-trimethylpent-2-ene",19976,DTXSID9026766,CC(C)=CC(C)(C)C,"InChI=1S/C8H16/c1-7(2)6-8(3,4)5/h6H,1-5H3",LAAVYEUJEMRIGF-UHFFFAOYSA-N,?,104.9,100909
100910,107-41-5,107-41-5,CC(O)CC(C)(C)O,"2-METHYL-2,4-PENTANEDIOL","2-Methyl-2,4-pentanediol","2-methylpentane-2,4-diol",19977,DTXSID5021885,CC(O)CC(C)(C)O,"InChI=1S/C6H14O2/c1-5(7)4-6(2,3)8/h5,7-8H,4H2,1-3H3",SVTBMSDMJJWYQN-UHFFFAOYSA-N,?,198.0,100910
100911,107-44-8,107-44-8,CC(C)OP(C)(=O)F,SARIN,Sarin,propan-2-yl methylphosphonofluoridate,19978,DTXSID0042371,CC(C)OP(C)(=O)F,"InChI=1S/C4H10FO2P/c1-4(2)7-8(3,5)6/h4H,1-3H3",DYAHQFWOVKZOOW-UHFFFAOYSA-N,?,147.0,100911
100913,107-46-0,107-46-0,C[Si](C)(C)O[Si](C)(C)C,HEXAMETHYLDISILOXANE,Hexamethyldisiloxane,hexamethyldisiloxane,19980,DTXSID4026769,C[Si](C)(C)O[Si](C)(C)C,"InChI=1S/C6H18OSi2/c1-8(2,3)7-9(4,5)6/h1-6H3",UQEAIHBTYFGYIE-UHFFFAOYSA-N,?,99.0,100913
100914,107-47-1,107-47-1,CC(C)(C)SC(C)(C)C,"Propane, 2,2'-thiobis 2-methyl-",tert-Butyl sulfide,2-(tert-butylsulfanyl)-2-methylpropane,19981,DTXSID5021887,CC(C)(C)SC(C)(C)C,"InChI=1S/C8H18S/c1-7(2,3)9-8(4,5)6/h1-6H3",LNMBCRKRCIMQLW-UHFFFAOYSA-N,?,149.1,100914
100915,107-48-2,NOCAS_870451,CC(C)(C)CC1(C)CO1,"2-(2,2-Dimethyl-propyl)-2-methyl-oxirane",,,19982,DTXSID90870451,CC(C)(C)CC1(C)CO1,"InChI=1S/C8H16O/c1-7(2,3)5-8(4)6-9-8/h5-6H2,1-4H3",WZHRVCOCPMCGEA-UHFFFAOYSA-N,?,140.9,100915
100917,107-52-8,107-52-8,C[Si](C)(C)O[Si](C)(C)O[Si](C)(C)O[Si](C)(C)O[Si](C)(C)O[Si](C)(C)C,TETRADECAMETHYLHEXASILOXANE,"Hexasiloxane, tetradecamethyl-",(dimethyl-trimethylsilyloxysilyl)oxy-[(dimethyl-trimethylsilyloxysilyl)oxy-dimethylsilyl]oxy-dimethylsilane,19984,DTXSID3059349,C[Si](C)(C)O[Si](C)(C)O[Si](C)(C)O[Si](C)(C)O[Si](C)(C)O[Si](C)(C)C,"InChI=1S/C14H42O5Si6/c1-20(2,3)15-22(7,8)17-24(11,12)19-25(13,14)18-23(9,10)16-21(4,5)6/h1-14H3",ADANNTOYRVPQLJ-UHFFFAOYSA-N,?,245.5,100917
100918,107-53-9,107-53-9,C[Si](C)(C)O[Si](C)(C)O[Si](C)(C)O[Si](C)(C)O[Si](C)(C)O[Si](C)(C)O[Si](C)(C)O[Si](C)(C)O[Si](C)(C)O[Si](C)(C)O[Si](C)(C)C,"Undecasiloxane, tetracosamethyl-","Undecasiloxane, tetracosamethyl-",bis[[[[(dimethyl-trimethylsilyloxysilyl)oxy-dimethylsilyl]oxy-dimethylsilyl]oxy-dimethylsilyl]oxy]-dimethylsilane,19985,DTXSID2059350,C[Si](C)(C)O[Si](C)(C)O[Si](C)(C)O[Si](C)(C)O[Si](C)(C)O[Si](C)(C)O[Si](C)(C)O[Si](C)(C)O[Si](C)(C)O[Si](C)(C)O[Si](C)(C)C,"InChI=1S/C24H72O10Si11/c1-35(2,3)25-37(7,8)27-39(11,12)29-41(15,16)31-43(19,20)33-45(23,24)34-44(21,22)32-42(17,18)30-40(13,14)28-38(9,10)26-36(4,5)6/h1-24H3",FVJWDHCWIYKORU-UHFFFAOYSA-N,?,322.8,100918
100919,107-59-5,107-59-5,CC(C)(C)OC(=O)CCl,"Acetic acid, chloro-, 1,1-dimethylethyl ester","Acetic acid, chloro-, 1,1-dimethylethyl ester",tert-butyl 2-chloroacetate,19986,DTXSID7059351,CC(C)(C)OC(=O)CCl,"InChI=1S/C6H11ClO2/c1-6(2,3)9-5(8)4-7/h4H2,1-3H3",KUYMVWXKHQSIAS-UHFFFAOYSA-N,?,150.0,100919
100921,107-72-2,NOCAS_861726,CCCCC[Si](Cl)(Cl)Cl,TRICHLOROPENTYLSILANE,,,19988,DTXSID70861726,CCCCC[Si](Cl)(Cl)Cl,"InChI=1S/C5H11Cl3Si/c1-2-3-4-5-9(6,7)8/h2-5H2,1H3",KWDQAHIRKOXFAV-UHFFFAOYSA-N,?,172.0,100921
100922,107-74-4,107-74-4,CC(CCO)CCCC(C)(C)O,"1,7-Octanediol, 3,7-dimethyl-","3,7-Dimethyloctane-1,7-diol","3,7-dimethyloctane-1,7-diol",19989,DTXSID6044513,CC(CCO)CCCC(C)(C)O,"InChI=1S/C10H22O2/c1-9(6-8-11)5-4-7-10(2,3)12/h9,11-12H,4-8H2,1-3H3",FPCCDPXRNNVUOM-UHFFFAOYSA-N,?,265.0,100922
100923,107-75-5,107-75-5,CC(CC=O)CCCC(C)(C)O,Hydroxycitronellal,"7-Hydroxy-3,7-dimethyloctanal","7-hydroxy-3,7-dimethyloctanal",19990,DTXSID6042232,CC(CC=O)CCCC(C)(C)O,"InChI=1S/C10H20O2/c1-9(6-8-11)5-4-7-10(2,3)12/h8-9,12H,4-7H2,1-3H3",WPFVBOQKRVRMJB-UHFFFAOYSA-N,?,241.0,100923
100925,107-81-3,NOCAS_870456,CCCC(C)Br,2-BROMOPENTANE,,,19992,DTXSID90870456,CCCC(C)Br,"InChI=1S/C5H11Br/c1-3-4-5(2)6/h5H,3-4H2,1-2H3",LGAJYTCRJPCZRJ-UHFFFAOYSA-N,?,117.4,100925
100926,107-82-4,107-82-4,CC(C)CCBr,1-BROMO-3-METHYLBUTANE,"Butane, 1-bromo-3-methyl-",1-Bromo-3-methylbutane,19993,DTXSID7059353,CC(C)CCBr,"InChI=1S/C5H11Br/c1-5(2)3-4-6/h5H,3-4H2,1-2H3",YXZFFTJAHVMMLF-UHFFFAOYSA-N,?,120.4,100926
100927,107-83-5,107-83-5,CCCC(C)C,2-METHYLPENTANE,2-Methylpentane,2-methylpentane,19994,DTXSID4029143,CCCC(C)C,"InChI=1S/C6H14/c1-4-5-6(2)3/h6H,4-5H2,1-3H3",AFABGHUZZDYHJO-UHFFFAOYSA-N,?,60.2,100927
100929,107-85-7,107-85-7,CC(C)CCN,"1-Butanamine, 3-methyl-","1-Butanamine, 3-methyl-",3-METHYLBUTAN-1-AMINE,19996,DTXSID7059355,CC(C)CCN,"InChI=1S/C5H13N/c1-5(2)3-4-6/h5H,3-4,6H2,1-2H3",BMFVGAAISNGQNM-UHFFFAOYSA-N,?,96.0,100929
100930,107-86-8,107-86-8,CC(C)=CC=O,"2-BUTENAL, 3-METHYL-",3-Methylbut-2-enal,3-methylbut-2-enal,19997,DTXSID8029606,CC(C)=CC=O,"InChI=1S/C5H8O/c1-5(2)3-4-6/h3-4H,1-2H3",SEPQTYODOKLVSB-UHFFFAOYSA-N,?,134.0,100930
100931,107-87-9,107-87-9,CCCC(C)=O,2-PENTANONE,2-Pentanone,pentan-2-one,19998,DTXSID0021888,CCCC(C)=O,"InChI=1S/C5H10O/c1-3-4-5(2)6/h3-4H2,1-2H3",XNLICIUVMPYHGG-UHFFFAOYSA-N,?,102.2,100931
100933,107-92-6,107-92-6,CCCC(O)=O,BUTYRIC ACID,Butanoic acid,butanoic acid,20000,DTXSID8021515,CCCC(O)=O,"InChI=1S/C4H8O2/c1-2-3-4(5)6/h2-3H2,1H3,(H,5,6)",FERIUCNNQQJTOY-UHFFFAOYSA-N,?,163.7,100933
100934,107-93-7|3724-65-0,3724-65-0,CC=CC(O)=O,CROTONIC ACID,2-Butenoic acid,but-2-enoic acid,20001|23511,DTXSID7027544,CC=CC(O)=O,"InChI=1S/C4H6O2/c1-2-3-4(5)6/h2-3H,1H3,(H,5,6)/b3-2+",LDHQCZJRKDOVOX-NSCUHMNNSA-N,?,184.85,100934
100935,107-94-8,107-94-8,OC(=O)CCCl,3-CHLOROPROPIONIC ACID,3-Chloropropanoic acid,3-chloropropanoic acid,20002,DTXSID5021546,OC(=O)CCCl,"InChI=1S/C3H5ClO2/c4-2-1-3(5)6/h1-2H2,(H,5,6)",QEYMMOKECZBKAC-UHFFFAOYSA-N,?,156.0,100935
100937,107-99-3,107-99-3,CN(C)CCCl,Dimethylaminoethyl chloride,"Ethanamine, 2-chloro-N,N-dimethyl-","2-chloro-N,N-dimethylethanamine",20004,DTXSID2059356,CN(C)CCCl,"InChI=1S/C4H10ClN/c1-6(2)4-3-5/h3-4H2,1-2H3",WQMAANNAZKNUDL-UHFFFAOYSA-N,?,110.0,100937
100938,108-00-9,108-00-9,CN(C)CCN,"1,2-Ethanediamine, N,N-dimethyl-","1,2-Ethanediamine, N,N-dimethyl-","N,N-dimethylethane-1,2-diamine",20005,DTXSID7059357,CN(C)CCN,"InChI=1S/C4H12N2/c1-6(2)4-3-5/h3-5H2,1-2H3",DILRJUIACXKSQE-UHFFFAOYSA-N,?,105.0,100938
100939,108-01-0,108-01-0,CN(C)CCO,2-DIMETHYLAMINOETHANOL,Dimethylaminoethanol,2-(dimethylamino)ethanol,20006,DTXSID2020505,CN(C)CCO,"InChI=1S/C4H11NO/c1-5(2)3-4-6/h6H,3-4H2,1-2H3",UEEJHVSXFDXPFK-UHFFFAOYSA-N,?,134.0,100939
100941,108-05-4,108-05-4,CC(=O)OC=C,VINYL ACETATE,Vinyl acetate,ethenyl acetate,20008,DTXSID3021431,CC(=O)OC=C,"InChI=1S/C4H6O2/c1-3-6-4(2)5/h3H,1H2,2H3",XTXRWKRVRITETP-UHFFFAOYSA-N,?,72.5,100941
100942,108-08-7,108-08-7,CC(C)CC(C)C,"2,4-DIMETHYLPENTANE","2,4-Dimethylpentane","2,4-Dimethylpentane",20009,DTXSID2059358,CC(C)CC(C)C,"InChI=1S/C7H16/c1-6(2)5-7(3)4/h6-7H,5H2,1-4H3",BZHMBWZPUJHVEE-UHFFFAOYSA-N,?,80.4,100942
100943,108-09-8,108-09-8,CC(C)CC(C)N,"2-Pentanamine, 4-methyl-","1,3-Dimethylbutylamine",4-methylpentan-2-amine,20010,DTXSID4025113,CC(C)CC(C)N,"InChI=1S/C6H15N/c1-5(2)4-6(3)7/h5-6H,4,7H2,1-3H3",UNBMPKNTYKDYCG-UHFFFAOYSA-N,?,109.0,100943
100945,108-11-2,108-11-2,CC(C)CC(C)O,4-METHYL-2-PENTANOL,4-Methyl-2-pentanol,4-methylpentan-2-ol,20012,DTXSID2026781,CC(C)CC(C)O,"InChI=1S/C6H14O/c1-5(2)4-6(3)7/h5-7H,4H2,1-3H3",WVYWICLMDOOCFB-UHFFFAOYSA-N,?,131.6,100945
100946,108-12-3,108-12-3,CC(C)CC(=O)Cl,"Butanoyl chloride, 3-methyl-","Butanoyl chloride, 3-methyl-",3-methylbutanoyl chloride,20013,DTXSID7059359,CC(C)CC(=O)Cl,"InChI=1S/C5H9ClO/c1-4(2)3-5(6)7/h4H,3H2,1-2H3",ISULZYQDGYXDFW-UHFFFAOYSA-N,?,114.0,100946
100947,108-16-7,108-16-7,CC(O)CN(C)C,"2-Propanol, 1-(dimethylamino)-",Dimepranol,1-(dimethylamino)propan-2-ol,20014,DTXSID5031210,CC(O)CN(C)C,"InChI=1S/C5H13NO/c1-5(7)4-6(2)3/h5,7H,4H2,1-3H3",NCXUNZWLEYGQAH-UHFFFAOYSA-N,?,124.5,100947
100949,108-20-3,108-20-3,CC(C)OC(C)C,DI-ISOPROPYL ETHER,Isopropyl ether,dipropan-2-yl ether,20016,DTXSID4021890,CC(C)OC(C)C,"InChI=1S/C6H14O/c1-5(2)7-6(3)4/h5-6H,1-4H3",ZAFNJMIOTHYJRJ-UHFFFAOYSA-N,?,68.5,100949
100950,108-21-4,108-21-4,CC(C)OC(C)=O,ISOPROPYL ACETATE,Isopropyl acetate,propan-2-yl acetate,20017,DTXSID2025478,CC(C)OC(C)=O,"InChI=1S/C5H10O2/c1-4(2)7-5(3)6/h4H,1-3H3",JMMWKPVZQRWMSS-UHFFFAOYSA-N,?,88.6,100950
100951,108-22-5,108-22-5,CC(=O)OC(C)=C,1-PROPEN-2-OL ACETATE,Isopropenyl acetate,prop-1-en-2-yl acetate,20018,DTXSID3031492,CC(=O)OC(C)=C,"InChI=1S/C5H8O2/c1-4(2)7-5(3)6/h1H2,2-3H3",HETCEOQFVDFGSY-UHFFFAOYSA-N,?,97.0,100951
100953,108-24-7,108-24-7,CC(=O)OC(C)=O,ACETIC ANHYDRIDE,Acetic anhydride,acetic anhydride,20020,DTXSID0024395,CC(=O)OC(C)=O,InChI=1S/C4H6O3/c1-3(5)7-4(2)6/h1-2H3,WFDIJRYMOXRFFG-UHFFFAOYSA-N,?,139.5,100953
100954,108-27-0,1558-60-7,C[C@H]1CCC(=O)N1,"2-PYRROLIDINONE, 5-METHYL-","2-Pyrrolidinone, 5-methyl-, (5S)-",C5H9NO,20021,DTXSID40428668,CC1CCC(=O)N1,"InChI=1S/C5H9NO/c1-4-2-3-5(7)6-4/h4H,2-3H2,1H3,(H,6,7)",YVIVRJLWYJGJTJ-UHFFFAOYSA-N,?,248.0,100954
100955,108-30-5,108-30-5,O=C1CCC(=O)O1,SUCCINIC ANHYDRIDE,Succinic anhydride,"dihydrofuran-2,5-dione",20022,DTXSID7021287,O=C1CCC(=O)O1,InChI=1S/C4H4O3/c5-3-1-2-4(6)7-3/h1-2H2,RINCXYDBBGOEEQ-UHFFFAOYSA-N,?,261.0,100955
100957,108-32-7,108-32-7,CC1COC(=O)O1,PROPYLENE CARBONATE,Propylene carbonate,"4-methyl-1,3-dioxolan-2-one",20024,DTXSID2026789,CC1COC(=O)O1,"InChI=1S/C4H6O3/c1-3-2-6-4(5)7-3/h3H,2H2,1H3",RUOJZAUFBMNUDX-UHFFFAOYSA-N,?,242.0,100957
100958,108-36-1,108-36-1,Brc1cc(Br)ccc1,M-DIBROMOBENZENE,"1,3-Dibromobenzene","1,3-dibromobenzene",20025,DTXSID7051555,Brc1cc(Br)ccc1,InChI=1S/C6H4Br2/c7-5-2-1-3-6(8)4-5/h1-4H,JSRLURSZEMLAFO-UHFFFAOYSA-N,?,218.0,100958
100959,108-37-2,108-37-2,Clc1cc(Br)ccc1,M-BROMOCHLOROBENZENE,"Benzene, 1-bromo-3-chloro-",1-Bromo-3-chlorobenzene,20026,DTXSID6059360,Clc1cc(Br)ccc1,InChI=1S/C6H4BrCl/c7-5-2-1-3-6(8)4-5/h1-4H,JRGGUPZKKTVKOV-UHFFFAOYSA-N,?,196.0,100959
100961,108-39-4,108-39-4,Cc1cc(O)ccc1,M-CRESOL,m-Cresol,3-methylphenol,20028,DTXSID6024200,Cc1cc(O)ccc1,"InChI=1S/C7H8O/c1-6-3-2-4-7(8)5-6/h2-5,8H,1H3",RLSSMJSEOOYNOY-UHFFFAOYSA-N,?,202.2,100961
100962,108-40-7,108-40-7,Cc1cc(S)ccc1,3-METHYLBENZENETHIOL,"Benzenethiol, 3-methyl-",3-Methylbenzenethiol,20029,DTXSID1059361,Cc1cc(S)ccc1,"InChI=1S/C7H8S/c1-6-3-2-4-7(8)5-6/h2-5,8H,1H3",WRXOZRLZDJAYDR-UHFFFAOYSA-N,?,195.0,100962
100963,108-41-8,108-41-8,Cc1cc(Cl)ccc1,M-CHLOROTOLUENE,m-Chlorotoluene,1-chloro-3-methylbenzene,20030,DTXSID4052841,Cc1cc(Cl)ccc1,"InChI=1S/C7H7Cl/c1-6-3-2-4-7(8)5-6/h2-5H,1H3",OSOUNOBYRMOXQQ-UHFFFAOYSA-N,?,161.8,100963
100965,108-43-0,108-43-0,Oc1cc(Cl)ccc1,3-CHLOROPHENOL,3-Chlorophenol,3-chlorophenol,20032,DTXSID4024800,Oc1cc(Cl)ccc1,"InChI=1S/C6H5ClO/c7-5-2-1-3-6(8)4-5/h1-4,8H",HORNXRXVQWOLPJ-UHFFFAOYSA-N,?,214.0,100965
100966,108-44-1,108-44-1,Cc1cc(N)ccc1,M-TOLUIDINE,3-Methylaniline,3-methylaniline,20033,DTXSID1026792,Cc1cc(N)ccc1,"InChI=1S/C7H9N/c1-6-3-2-4-7(8)5-6/h2-5H,8H2,1H3",JJYPMNFTHPTTDI-UHFFFAOYSA-N,?,203.3,100966
100967,108-45-2,108-45-2,Nc1cc(N)ccc1,"1,3-BENZENEDIAMINE","1,3-Benzenediamine","benzene-1,3-diamine",20034,DTXSID4021137,Nc1cc(N)ccc1,"InChI=1S/C6H8N2/c7-5-2-1-3-6(8)4-5/h1-4H,7-8H2",WZCQRUWWHSTZEM-UHFFFAOYSA-N,?,285.0,100967
100969,108-47-4,108-47-4,Cc1cc(C)[n]cc1,"2,4-DIMETHYLPYRIDINE","2,4-Dimethylpyridine","2,4-dimethylpyridine",20036,DTXSID2051556,Cc1cc(C)[n]cc1,"InChI=1S/C7H9N/c1-6-3-4-8-7(2)5-6/h3-5H,1-2H3",JYYNAJVZFGKDEQ-UHFFFAOYSA-N,?,158.5,100969
100970,108-48-5,108-48-5,Cc1cccc(C)[n]1,"2,6-LUTIDINE","2,6-Dimethylpyridine","2,6-dimethylpyridine",20037,DTXSID7051557,Cc1cccc(C)[n]1,"InChI=1S/C7H9N/c1-6-4-3-5-7(2)8-6/h3-5H,1-2H3",OISVCGZHLKNMSJ-UHFFFAOYSA-N,?,144.1,100970
100971,108-50-9,108-50-9,Cc1c[n]cc(C)[n]1,"PYRAZINE, 2,6-DIMETHYL-","2,6-Dimethylpyrazine","2,6-dimethylpyrazine",20038,DTXSID5047619,Cc1c[n]cc(C)[n]1,"InChI=1S/C6H8N2/c1-5-3-7-4-6(2)8-5/h3-4H,1-2H3",HJFZAYHYIWGLNL-UHFFFAOYSA-N,?,155.6,100971
100973,108-59-8,108-59-8,COC(=O)CC(=O)OC,"PROPANEDIOIC ACID, DIMETHYL ESTER",Dimethyl malonate,dimethyl propanedioate,20040,DTXSID4029145,COC(=O)CC(=O)OC,"InChI=1S/C5H8O4/c1-8-4(6)3-5(7)9-2/h3H2,1-2H3",BEPAFCGSDWSTEL-UHFFFAOYSA-N,?,181.4,100973
100974,108-60-1,108-60-1,CC(CCl)OC(C)CCl,"DCIP  (2,2'-OXYBIS-1-CHLOROPROPANE)",bis(2-Chloro-1-methylethyl) ether,C6H12Cl2O,20041,DTXSID4020167,CC(CCl)OC(C)CCl,"InChI=1S/C6H12Cl2O/c1-5(3-7)9-6(2)4-8/h5-6H,3-4H2,1-2H3",QCFYJCYNJLBDRT-UHFFFAOYSA-N,?,187.0,100974
100976,108-64-5,108-64-5,CCOC(=O)CC(C)C,ETHYL ISOVALERATE,Ethyl isovalerate,ethyl 3-methylbutanoate,20042,DTXSID3047057,CCOC(=O)CC(C)C,"InChI=1S/C7H14O2/c1-4-9-7(8)5-6(2)3/h6H,4-5H2,1-3H3",PPXUHEORWJQRHJ-UHFFFAOYSA-N,?,135.0,100976
100978,108-67-8,108-67-8,Cc1cc(C)cc(C)c1,"1,3,5-TRIMETHYLBENZENE","1,3,5-Trimethylbenzene","1,3,5-trimethylbenzene",20044,DTXSID6026797,Cc1cc(C)cc(C)c1,"InChI=1S/C9H12/c1-7-4-8(2)6-9(3)5-7/h4-6H,1-3H3",AUHZEENZYGFFBQ-UHFFFAOYSA-N,?,164.7,100978
100979,108-68-9,108-68-9,Cc1cc(O)cc(C)c1,"3,5-DIMETHYLPHENOL","3,5-Dimethylphenol","3,5-dimethylphenol",20045,DTXSID1025148,Cc1cc(O)cc(C)c1,"InChI=1S/C8H10O/c1-6-3-7(2)5-8(9)4-6/h3-5,9H,1-2H3",TUAMRELNJMMDMT-UHFFFAOYSA-N,?,221.7,100979
100980,108-69-0,108-69-0,Cc1cc(N)cc(C)c1,"3,5-DIMETHYLANILINE","3,5-Dimethylaniline","3,5-dimethylaniline",20046,DTXSID8026309,Cc1cc(N)cc(C)c1,"InChI=1S/C8H11N/c1-6-3-7(2)5-8(9)4-6/h3-5H,9H2,1-2H3",MKARNSWMMBGSHX-UHFFFAOYSA-N,?,220.5,100980
100982,108-74-7,108-74-7,CN1CN(C)CN(C)C1,"1,3,5-Triazine, hexahydro-1,3,5-trimethyl-","Hexahydro-1,3,5-trimethyl-1,3,5-triazine","1,3,5-trimethyl-1,3,5-triazinane",20048,DTXSID6051560,CN1CN(C)CN(C)C1,"InChI=1S/C6H15N3/c1-7-4-8(2)6-9(3)5-7/h4-6H2,1-3H3",DPMZXMBOYHBELT-UHFFFAOYSA-N,?,162.75,100982
100983,108-75-8,108-75-8,Cc1cc(C)[n]c(C)c1,"2,4,6-COLLIDINE","2,4,6-Trimethylpyridine","2,4,6-trimethylpyridine",20049,DTXSID1051561,Cc1cc(C)[n]c(C)c1,"InChI=1S/C8H11N/c1-6-4-7(2)9-8(3)5-6/h4-5H,1-3H3",BWZVCCNYKMEVEX-UHFFFAOYSA-N,?,170.6,100983
100984,108-77-0,108-77-0,Clc1[n]c(Cl)[n]c(Cl)[n]1,CYANURIC CHLORIDE,"2,4,6-Trichloro-s-triazine","2,4,6-trichloro-1,3,5-triazine",20050,DTXSID6026799,Clc1[n]c(Cl)[n]c(Cl)[n]1,InChI=1S/C3Cl3N3/c4-1-7-2(5)9-3(6)8-1,MGNCLNQXLYJVJD-UHFFFAOYSA-N,?,192.0,100984
100986,108-83-8,108-83-8,CC(C)CC(=O)CC(C)C,"2,6-DIMETHYL-4-HEPTANONE",Diisobutyl ketone,"2,6-dimethylheptan-4-one",20052,DTXSID4025080,CC(C)CC(=O)CC(C)C,"InChI=1S/C9H18O/c1-7(2)5-9(10)6-8(3)4/h7-8H,5-6H2,1-4H3",PTTPXKJBFFKCEK-UHFFFAOYSA-N,?,169.4,100986
100987,108-84-9,108-84-9,CC(C)CC(C)OC(C)=O,4-METHYL-2-PENTYL ACETATE,"1,3-Dimethylbutyl acetate",4-methylpentan-2-yl acetate,20053,DTXSID6051562,CC(C)CC(C)OC(C)=O,"InChI=1S/C8H16O2/c1-6(2)5-7(3)10-8(4)9/h6-7H,5H2,1-4H3",CPIVYSAVIPTCCX-UHFFFAOYSA-N,?,147.5,100987
100988,108-85-0,108-85-0,BrC1CCCCC1,BROMOCYCLOHEXANE,Bromocyclohexane,bromocyclohexane,20054,DTXSID1044148,BrC1CCCCC1,"InChI=1S/C6H11Br/c7-6-4-2-1-3-5-6/h6H,1-5H2",AQNQQHJNRPDOQV-UHFFFAOYSA-N,?,166.2,100988
100990,108-87-2,108-87-2,CC1CCCCC1,1-METHYLCYCLOHEXANE,Methylcyclohexane,methylcyclohexane,20056,DTXSID0047749,CC1CCCCC1,"InChI=1S/C7H14/c1-7-5-3-2-4-6-7/h7H,2-6H2,1H3",UAEPNZWRGJTJPN-UHFFFAOYSA-N,?,100.9,100990
100991,108-88-3,108-88-3,Cc1ccccc1,TOLUENE,Toluene,methylbenzene,20057,DTXSID7021360,Cc1ccccc1,"InChI=1S/C7H8/c1-7-5-3-2-4-6-7/h2-6H,1H3",YXFVVABEGXRONW-UHFFFAOYSA-N,?,110.6,100991
100992,108-89-4,108-89-4,Cc1cc[n]cc1,4-METHYLPYRIDINE,4-Methylpyridine,4-methylpyridine,20058,DTXSID4021892,Cc1cc[n]cc1,"InChI=1S/C6H7N/c1-6-2-4-7-5-3-6/h2-5H,1H3",FKNQCJSGGFJEIZ-UHFFFAOYSA-N,?,145.3,100992
100994,108-91-8,108-91-8,NC1CCCCC1,CYCLOHEXANAMINE,Cyclohexylamine,cyclohexanamine,20060,DTXSID1023996,NC1CCCCC1,"InChI=1S/C6H13N/c7-6-4-2-1-3-5-6/h6H,1-5,7H2",PAFZNILMFXTMIY-UHFFFAOYSA-N,?,134.0,100994
100995,108-93-0,108-93-0,OC1CCCCC1,CYCLOHEXANOL,Cyclohexanol,cyclohexanol,20061,DTXSID4021894,OC1CCCCC1,"InChI=1S/C6H12O/c7-6-4-2-1-3-5-6/h6-7H,1-5H2",HPXRVTGHNJAIIH-UHFFFAOYSA-N,?,160.8,100995
100996,108-94-1,108-94-1,O=C1CCCCC1,CYCLOHEXANONE,Cyclohexanone,cyclohexanone,20062,DTXSID6020359,O=C1CCCCC1,InChI=1S/C6H10O/c7-6-4-2-1-3-5-6/h1-5H2,JHIVVAPYMSGYDF-UHFFFAOYSA-N,?,155.4,100996
100998,108-97-4,108-97-4,O=C1C=COC=C1,4H-PYRAN-4-ONE,4H-Pyran-4-one,pyran-4-one,20064,DTXSID20148352,O=C1C=COC=C1,InChI=1S/C5H4O2/c6-5-1-3-7-4-2-5/h1-4H,CVQUWLDCFXOXEN-UHFFFAOYSA-N,?,212.5,100998
100999,108-98-5,108-98-5,Sc1ccccc1,THIOPHENOL,Benzenethiol,benzenethiol,20065,DTXSID7026811,Sc1ccccc1,"InChI=1S/C6H6S/c7-6-4-2-1-3-5-6/h1-5,7H",RMVRSNDYEFQCLF-UHFFFAOYSA-N,?,169.1,100999
101000,108-99-6,108-99-6,Cc1c[n]ccc1,3-METHYLPYRIDINE,3-Methylpyridine,3-methylpyridine,20066,DTXSID9021897,Cc1c[n]ccc1,"InChI=1S/C6H7N/c1-6-3-2-4-7-5-6/h2-5H,1H3",ITQTTZVARXURQS-UHFFFAOYSA-N,?,144.1,101000
101002,109-02-4,109-02-4,CN1CCOCC1,N-METHYLMORPHOLINE,4-Methylmorpholine,4-methylmorpholine,20068,DTXSID9029146,CN1CCOCC1,"InChI=1S/C5H11NO/c1-6-2-4-7-5-3-6/h2-5H2,1H3",SJRJJKPEHAURKC-UHFFFAOYSA-N,?,116.0,101002
101003,109-04-6,109-04-6,Brc1cccc[n]1,2-BROMOPYRIDINE,2-Bromopyridine,2-bromopyridine,20069,DTXSID6051564,Brc1cccc[n]1,InChI=1S/C5H4BrN/c6-5-3-1-2-4-7-5/h1-4H,IMRWILPUOVGIMU-UHFFFAOYSA-N,?,194.8,101003
101004,109-05-7,1722-95-8,C[C@@H]1CCCCN1,2-METHYLPIPERIDINE,(R)-2-Methylpiperidine,C6H13N,20070,DTXSID70348446,CC1CCCCN1,"InChI=1S/C6H13N/c1-6-4-2-3-5-7-6/h6-7H,2-5H2,1H3",NNWUEBIEOFQMSS-UHFFFAOYSA-N,?,120.0,101004
101006,109-07-9,109-07-9,CC1CNCCN1,"Piperazine, 2-methyl-",2-Methylpiperazine,2-methylpiperazine,20072,DTXSID1021900,CC1CNCCN1,"InChI=1S/C5H12N2/c1-5-4-6-2-3-7-5/h5-7H,2-4H2,1H3",JOMNTHCQHJPVAZ-UHFFFAOYSA-N,?,153.0,101006
101007,109-08-0,109-08-0,Cc1c[n]cc[n]1,2-METHYLPYRAZINE,2-Methylpyrazine,2-methylpyrazine,20073,DTXSID4047620,Cc1c[n]cc[n]1,"InChI=1S/C5H6N2/c1-5-4-6-2-3-7-5/h2-4H,1H3",CAWHJQAVHZEVTJ-UHFFFAOYSA-N,?,137.0,101007
101008,109-09-1,109-09-1,Clc1cccc[n]1,2-CHLOROPYRIDINE,2-Chloropyridine,2-chloropyridine,20074,DTXSID8024810,Clc1cccc[n]1,InChI=1S/C5H4ClN/c6-5-3-1-2-4-7-5/h1-4H,OKDGRDCXVWSXDC-UHFFFAOYSA-N,?,170.0,101008
101010,109-21-7,109-21-7,CCCC(=O)OCCCC,N-BUTYLBUTYRATE,Butyl butyrate,butyl butanoate,20076,DTXSID7041702,CCCC(=O)OCCCC,"InChI=1S/C8H16O2/c1-3-5-7-10-8(9)6-4-2/h3-7H2,1-2H3",XUPYJHCZDLZNFP-UHFFFAOYSA-N,?,166.0,101010
101011,109-43-3,109-43-3,CCCCOC(=O)CCCCCCCCC(=O)OCCCC,DIBUTYL SEBACATE,Dibutyl decanedioate,dibutyl decanedioate,20077,DTXSID1041847,CCCCOC(=O)CCCCCCCCC(=O)OCCCC,"InChI=1S/C18H34O4/c1-3-5-15-21-17(19)13-11-9-7-8-10-12-14-18(20)22-16-6-4-2/h3-16H2,1-2H3",PYGXAGIECVVIOZ-UHFFFAOYSA-N,?,344.5,101011
101012,109-49-9,109-49-9,CC(=O)CCC=C,1-HEXEN-5-ONE,5-Hexen-2-one,hex-5-en-2-one,20078,DTXSID0059372,CC(=O)CCC=C,"InChI=1S/C6H10O/c1-3-4-5-6(2)7/h3H,1,4-5H2,2H3",RNDVGJZUHCKENF-UHFFFAOYSA-N,?,129.5,101012
101014,109-53-5,109-53-5,CC(C)COC=C,ISOBUTYL VINYL ETHER,Vinyl isobutyl ether,C6H12O,20080,DTXSID8029608,CC(C)COC=C,"InChI=1S/C6H12O/c1-4-7-5-6(2)3/h4,6H,1,5H2,2-3H3",OZCMOJQQLBXBKI-UHFFFAOYSA-N,?,83.0,101014