ChemID,source_casrn,CAS,SMILES,NAME,preferred_name,iupac,MPID,dsstox_substance_id,Canonical_QSARr,InChI_Code_QSARr,InChI Key_QSARr,Salt_Solvent,BP,ID
100005,51-66-1,51-66-1,CC(=O)Nc1ccc(cc1)OC,P-METHOXYACETANILIDE,N-(4-Methoxyphenyl)acetamide,N-(4-methoxyphenyl)acetamide,19095,DTXSID6026325,CC(=O)Nc1ccc(cc1)OC,"InChI=1S/C9H11NO2/c1-7(11)10-8-3-5-9(12-2)6-4-8/h3-6H,1-2H3,(H,10,11)",XVAIDCNLVLTVFM-UHFFFAOYSA-N,?,335.0,100005
100009,53-96-3,53-96-3,CC(=O)Nc1cc2Cc3ccccc3-c2cc1,N-2-FLUORENYLACETAMIDE,2-Acetylaminofluorene,N-(9H-fluoren-2-yl)acetamide,19099,DTXSID0039227,CC(=O)Nc1cc2Cc3ccccc3-c2cc1,"InChI=1S/C15H13NO/c1-10(17)16-13-6-7-15-12(9-13)8-11-4-2-3-5-14(11)15/h2-7,9H,8H2,1H3,(H,16,17)",CZIHNRWJTSTCEX-UHFFFAOYSA-N,?,303.0,100009
100013,55-21-0,55-21-0,NC(=O)c1ccccc1,BENZAMIDE,Benzamide,benzamide,19103,DTXSID0021709,NC(=O)c1ccccc1,"InChI=1S/C7H7NO/c8-7(9)6-4-2-1-3-5-6/h1-5H,(H2,8,9)",KXDAEFPNCMNJSK-UHFFFAOYSA-N,?,290.0,100013
100017,56-38-2,56-38-2,CCOP(=S)(Oc1ccc(cc1)[N+]([O-])=O)OCC,PARATHION,Parathion,"O,O-diethyl O-(4-nitrophenyl) phosphorothioate",19107,DTXSID7021100,CCOP(=S)(Oc1ccc(cc1)[N+]([O-])=O)OCC,"InChI=1S/C10H14NO5PS/c1-3-14-17(18,15-4-2)16-10-7-5-9(6-8-10)11(12)13/h5-8H,3-4H2,1-2H3",LCCNCVORNKJIRZ-UHFFFAOYSA-N,?,375.0,100017
100021,57-10-3,57-10-3,CCCCCCCCCCCCCCCC(O)=O,PALMITIC ACID,Hexadecanoic acid,hexadecanoic acid,19111,DTXSID2021602,CCCCCCCCCCCCCCCC(O)=O,"InChI=1S/C16H32O2/c1-2-3-4-5-6-7-8-9-10-11-12-13-14-15-16(17)18/h2-15H2,1H3,(H,17,18)",IPCSVZSSVZVIGE-UHFFFAOYSA-N,?,351.5,100021
100025,57-55-6,57-55-6,CC(O)CO,"1,2-PROPANEDIOL","1,2-Propylene glycol","propane-1,2-diol",19115,DTXSID0021206,CC(O)CO,"InChI=1S/C3H8O2/c1-3(5)2-4/h3-5H,2H2,1H3",DNIAPMSPPWPWGF-UHFFFAOYSA-N,?,187.6,100025
100033,59-89-2,59-89-2,O=NN1CCOCC1,N-NITROSOMORPHOLINE,N-Nitrosomorpholine,4-nitrosomorpholine,19122,DTXSID4021056,O=NN1CCOCC1,InChI=1S/C4H8N2O2/c7-5-6-1-3-8-4-2-6/h1-4H2,ZKXDGKXYMTYWTB-UHFFFAOYSA-N,?,225.0,100033
100038,60-29-7,60-29-7,CCOCC,DIETHYL ETHER,Diethyl ether,diethyl ether,19126,DTXSID3021720,CCOCC,"InChI=1S/C4H10O/c1-3-5-4-2/h3-4H2,1-2H3",RTZKZFJDLAIYFH-UHFFFAOYSA-N,?,34.6,100038
100042,60-56-0,60-56-0,CN1C=CNC1=S,METHIMAZOLE,Methimazole,"1-methyl-1,3-dihydro-2H-imidazole-2-thione",19130,DTXSID4020820,CN1C=CNC1=S,"InChI=1S/C4H6N2S/c1-6-3-2-5-4(6)7/h2-3H,1H3,(H,5,7)",PMRYVIKBURPHAH-UHFFFAOYSA-N,?,280.0,100042
100046,62-50-0,62-50-0,CCOS(C)(=O)=O,ETHYL METHANESULFONATE,Ethyl methanesulfonate,ethyl methanesulfonate,19134,DTXSID6025309,CCOS(C)(=O)=O,"InChI=1S/C3H8O3S/c1-3-6-7(2,4)5/h3H2,1-2H3",PLUBXMRUUVWRLT-UHFFFAOYSA-N,?,213.5,100046
100050,63-25-2,63-25-2,CNC(=O)Oc1cccc2ccccc21,1-NAPHTHYL-N-METHYLCARBAMATE,Carbaryl,naphthalen-1-yl methylcarbamate,19138,DTXSID9020247,CNC(=O)Oc1cccc2ccccc21,"InChI=1S/C12H11NO2/c1-13-12(14)15-11-8-4-6-9-5-2-3-7-10(9)11/h2-8H,1H3,(H,13,14)",CVXBEEMKQHEXEN-UHFFFAOYSA-N,?,315.0,100050
100054,64-17-5,64-17-5,CCO,ETHANOL,Ethanol,ethanol,19142,DTXSID9020584,CCO,"InChI=1S/C2H6O/c1-2-3/h3H,2H2,1H3",LFQSCWFLJHTTHZ-UHFFFAOYSA-N,?,78.2,100054
100058,65-85-0,65-85-0,OC(=O)c1ccccc1,BENZOIC ACID,Benzoic acid,benzoic acid,19146,DTXSID6020143,OC(=O)c1ccccc1,"InChI=1S/C7H6O2/c8-7(9)6-4-2-1-3-5-6/h1-5H,(H,8,9)",WPYMKLBDIGXBTP-UHFFFAOYSA-N,?,249.2,100058
100062,67-51-6,67-51-6,Cc1cc(C)[nH][n]1,"1H-PYRAZOLE, 3,5-DIMETHYL-","3,5-Dimethylpyrazole",,19150,DTXSID5058777,Cc1cc(C)[nH][n]1,"InChI=1S/C5H8N2/c1-4-3-5(2)7-6-4/h3H,1-2H3,(H,6,7)",SDXAWLJRERMRKF-UHFFFAOYSA-N,?,218.0,100062
100066,67-64-1|666-52-4,67-64-1|666-52-4,CC(C)=O,"ACETONE, 1,1,1,3,3,3-HEXADEUTERO-2-PROPANONE",Acetone,propan-2-one,19154|22144,DTXSID8021482|DTXSID20216767,CC(C)=O,InChI=1S/C3H6O/c1-3(2)4/h1-2H3,CSCPPACGZOOCGX-UHFFFAOYSA-N,?,55.75,100066
100070,68-12-2,68-12-2,CN(C)C=O,"N,N'-DIMETHYLFORMAMIDE","N,N-Dimethylformamide","N,N-dimethylformamide",19158,DTXSID6020515,CN(C)C=O,"InChI=1S/C3H7NO/c1-4(2)3-5/h3H,1-2H3",ZMXDDKWLCZADIW-UHFFFAOYSA-N,?,153.0,100070
100074,71-36-3|4712-38-3,71-36-3|4712-38-3,CCCCO,"1-BUTANOL, 1-BUTANOL (D)",1-Butanol,butan-1-ol,19162|23679,DTXSID1021740|DTXSID40197044,CCCCO,"InChI=1S/C4H10O/c1-2-3-4-5/h5H,2-4H2,1H3",LRHPLDYGYMQRHN-UHFFFAOYSA-N,?,117.85,100074
100078,72-43-5,72-43-5,COc1ccc(cc1)C(c1ccc(cc1)OC)C(Cl)(Cl)Cl,METHOXYCHLOR,Methoxychlor,"1,1'-(2,2,2-trichloroethane-1,1-diyl)bis(4-methoxybenzene)",19166,DTXSID9020827,COc1ccc(cc1)C(c1ccc(cc1)OC)C(Cl)(Cl)Cl,"InChI=1S/C16H15Cl3O2/c1-20-13-7-3-11(4-8-13)15(16(17,18)19)12-5-9-14(21-2)10-6-12/h3-10,15H,1-2H3",IAKOZHOLGAGEJT-UHFFFAOYSA-N,?,346.0,100078
100082,74-82-8,74-82-8,C,METHANE,Methane,methane,19170,DTXSID8025545,C,InChI=1S/CH4/h1H4,VNWKTOKETHGBQD-UHFFFAOYSA-N,?,-161.5,100082
100086,74-86-2,74-86-2,C#C,ACETYLENE,Ethyne,ethyne,19174,DTXSID6026379,C#C,InChI=1S/C2H2/c1-2/h1-2H,HSFWRNGVRCDJHI-UHFFFAOYSA-N,?,-84.7,100086
100090,74-90-8,74-90-8,C#N,HYDROCYANIC ACID,Hydrogen cyanide,hydrocyanic acid,19178,DTXSID9024148,C#N,InChI=1S/CHN/c1-2/h1H,LELOWRISYMNNSU-UHFFFAOYSA-N,?,25.6,100090
100094,74-97-5,74-97-5,ClCBr,CHLOROBROMOMETHANE,Bromochloromethane,bromo(chloro)methane,19182,DTXSID4021503,ClCBr,InChI=1S/CH2BrCl/c2-1-3/h1H2,JPOXNPPZZKNXOV-UHFFFAOYSA-N,?,68.0,100094
100098,75-01-4,75-01-4,C=CCl,VINYLCHLORIDE,Vinyl chloride,chloroethene,19186,DTXSID8021434,C=CCl,"InChI=1S/C2H3Cl/c1-2-3/h2H,1H2",BZHJMEDXRYGGRV-UHFFFAOYSA-N,?,-13.3,100098
100102,75-05-8,75-05-8,CC#N,ACETONITRILE,Acetonitrile,acetonitrile,19190,DTXSID7020009,CC#N,InChI=1S/C2H3N/c1-2-3/h1H3,WEVYAHXRMPXWCK-UHFFFAOYSA-N,?,81.6,100102
100106,75-10-5,75-10-5,FCF,DIFLUOROMETHANE,"Methane, difluoro-",difluoromethane,19194,DTXSID6029597,FCF,InChI=1S/CH2F2/c2-1-3/h1H2,RWRIWBAIICGTTQ-UHFFFAOYSA-N,?,-51.6,100106
100110,75-18-3,75-18-3,CSC,DIMETHYLSULFIDE,Dimethyl sulfide,dimethyl sulfide,19198,DTXSID9026398,CSC,InChI=1S/C2H6S/c1-3-2/h1-2H3,QMMFVYPAHWMCMS-UHFFFAOYSA-N,?,37.3,100110
100116,75-26-3,75-26-3,CC(C)Br,2-BROMOPROPANE,2-Bromopropane,2-bromopropane,19202,DTXSID7030197,CC(C)Br,"InChI=1S/C3H7Br/c1-3(2)4/h3H,1-2H3",NAMYKGVDVNBCFQ-UHFFFAOYSA-N,?,59.5,100116
100120,75-30-9,75-30-9,CC(C)I,2-IODOPROPANE,"Propane, 2-iodo-",2-IODOPROPANE,19206,DTXSID4058788,CC(C)I,"InChI=1S/C3H7I/c1-3(2)4/h3H,1-2H3",FMKOJHQHASLBPH-UHFFFAOYSA-N,?,89.5,100120
100124,75-35-4,75-35-4,C=C(Cl)Cl,"1,1-DICHLOROETHENE","1,1-Dichloroethylene","1,1-dichloroethene",19210,DTXSID8021438,C=C(Cl)Cl,InChI=1S/C2H2Cl2/c1-2(3)4/h1H2,LGXVIGDEPROXKC-UHFFFAOYSA-N,?,31.6,100124
100128,75-43-4,75-43-4,FC(Cl)Cl,DICHLOROFLUOROMETHANE,Dichlorofluoromethane,dichloro(fluoro)methane,19214,DTXSID7052498,FC(Cl)Cl,InChI=1S/CHCl2F/c2-1(3)4/h1H,UMNKXPULIDJLSU-UHFFFAOYSA-N,?,8.9,100128
100132,75-47-8,75-47-8,IC(I)I,IODOFORM,Iodoform,triiodomethane,19218,DTXSID4020743,IC(I)I,InChI=1S/CHI3/c2-1(3)4/h1H,OKJPEAGHQZHRQV-UHFFFAOYSA-N,?,218.0,100132
100136,75-55-8,75-55-8,CC1CN1,2-METHYLAZIRIDINE,Propyleneimine,2-methylaziridine,19222,DTXSID8024286,CC1CN1,"InChI=1S/C3H7N/c1-3-2-4-3/h3-4H,2H2,1H3",OZDGMOYKSFPLSE-UHFFFAOYSA-N,?,67.0,100136
100140,75-63-8,75-63-8,FC(F)(F)Br,BROMOTRIFLUOROMETHANE,Bromotrifluoromethane,bromo(trifluoro)methane,19226,DTXSID5026415,FC(F)(F)Br,"InChI=1S/CBrF3/c2-1(3,4)5",RJCQBQGAPKAMLL-UHFFFAOYSA-N,?,-57.8,100140
100144,75-68-3,75-68-3,CC(F)(F)Cl,"1-CHLORO-1,1-DIFLUOROETHANE","1-Chloro-1,1-difluoroethane","1-chloro-1,1-difluoroethane",19230,DTXSID9023960,CC(F)(F)Cl,"InChI=1S/C2H3ClF2/c1-2(3,4)5/h1H3",BHNZEZWIUMJCGF-UHFFFAOYSA-N,?,-9.7,100144
100148,75-73-0,75-73-0,FC(F)(F)F,TETRAFLUOROMETHANE,Carbon tetrafluoride,tetrafluoromethane,19234,DTXSID2041757,FC(F)(F)F,"InChI=1S/CF4/c2-1(3,4)5",TXEYQDLBPFQVAA-UHFFFAOYSA-N,?,-128.0,100148
100153,75-79-6,75-79-6,C[Si](Cl)(Cl)Cl,METHYLTRICHLOROSILANE,Methyltrichlorosilane,trichloro(methyl)silane,19238,DTXSID4026426,C[Si](Cl)(Cl)Cl,"InChI=1S/CH3Cl3Si/c1-5(2,3)4/h1H3",JLUFWMXJHAVVNN-UHFFFAOYSA-N,?,65.6,100153
100158,75-85-4,75-85-4,CCC(C)(C)O,2-METHYL-2-BUTANOL,2-Methyl-2-butanol,2-methylbutan-2-ol,19242,DTXSID0041436,CCC(C)(C)O,"InChI=1S/C5H12O/c1-4-5(2,3)6/h6H,4H2,1-3H3",MSXVEPNJUHWQHW-UHFFFAOYSA-N,?,102.4,100158
100162,75-89-8,75-89-8,OCC(F)(F)F,"2,2,2-TRIFLUOROETHANOL","2,2,2-Trifluoroethanol","2,2,2-trifluoroethanol",19246,DTXSID0021751,OCC(F)(F)F,"InChI=1S/C2H3F3O/c3-2(4,5)1-6/h6H,1H2",RHQDFWAXVIIEBN-UHFFFAOYSA-N,?,74.0,100162
100166,75-99-0,75-99-0,CC(Cl)(Cl)C(O)=O,DALAPON,Dalapon,"2,2-dichloropropanoic acid",19250,DTXSID2021575,CC(Cl)(Cl)C(O)=O,"InChI=1S/C3H4Cl2O2/c1-3(4,5)2(6)7/h1H3,(H,6,7)",NDUPDOJHUQKPAG-UHFFFAOYSA-N,?,187.5,100166
100170,76-03-9,76-03-9,OC(=O)C(Cl)(Cl)Cl,TRICHLOROACETIC ACID,Trichloroacetic acid,trichloroacetic acid,19254,DTXSID1021378,OC(=O)C(Cl)(Cl)Cl,"InChI=1S/C2HCl3O2/c3-2(4,5)1(6)7/h(H,6,7)",YNJBWRMUSHSURL-UHFFFAOYSA-N,?,196.5,100170
100174,76-09-5,76-09-5,CC(C)(O)C(C)(C)O,PINACOL,"2,3-Butanediol, 2,3-dimethyl-","2,3-Dimethylbutane-2,3-diol",19258,DTXSID3058793,CC(C)(O)C(C)(C)O,"InChI=1S/C6H14O2/c1-5(2,7)6(3,4)8/h7-8H,1-4H3",IVDFJHOHABJVEH-UHFFFAOYSA-N,?,174.4,100174
100178,76-14-2,76-14-2,FC(F)(Cl)C(F)(F)Cl,"1,2-DICHLOROTETRAFLUOROETHANE","1,2-Dichloro-1,1,2,2-tetrafluoroethane","1,2-dichloro-1,1,2,2-tetrafluoroethane",19262,DTXSID8026434,FC(F)(Cl)C(F)(F)Cl,"InChI=1S/C2Cl2F4/c3-1(5,6)2(4,7)8",DDMOUSALMHHKOS-UHFFFAOYSA-N,?,3.8,100178
100182,76-19-7,76-19-7,FC(F)(C(F)(F)F)C(F)(F)F,OCTAFLUOROPROPANE,Perflutren,octafluoropropane,19266,DTXSID9052503,FC(F)(C(F)(F)F)C(F)(F)F,"InChI=1S/C3F8/c4-1(5,2(6,7)8)3(9,10)11",QYSGYZVSCZSLHT-UHFFFAOYSA-N,?,-36.6,100182
100186,76-36-8,NOCAS_871545,CC(Cl)C(Cl)(Cl)C=O,"a,a,b-Trichloro-n-butyraldehyde",,,19270,DTXSID50871545,CC(Cl)C(Cl)(Cl)C=O,"InChI=1S/C4H5Cl3O/c1-3(5)4(6,7)2-8/h2-3H,1H3",OXVISHZELPRKFQ-UHFFFAOYSA-N,?,164.0,100186
100190,76-49-3,76-49-3,CC1(C)C2C[C@@H](OC(C)=O)C1(C)CC2,BORNYL ACETATE,Bornyl acetate,"(2R)-1,7,7-trimethylbicyclo[2.2.1]hept-2-yl acetate",19274,DTXSID7041675,CC1(C)C2CC(OC(C)=O)C1(C)CC2,"InChI=1S/C12H20O2/c1-8(13)14-10-7-9-5-6-12(10,4)11(9,2)3/h9-10H,5-7H2,1-4H3",KGEKLUUHTZCSIP-UHFFFAOYSA-N,?,221.0,100190
100194,77-47-4,77-47-4,ClC1(Cl)C(Cl)=C(Cl)C(Cl)=C1Cl,HEXACHLOROCYCLOPENTADIENE,Hexachlorocyclopentadiene,"1,2,3,4,5,5-hexachlorocyclopenta-1,3-diene",19278,DTXSID2020688,ClC1(Cl)C(Cl)=C(Cl)C(Cl)=C1Cl,"InChI=1S/C5Cl6/c6-1-2(7)4(9)5(10,11)3(1)8",VUNCWTMEJYMOOR-UHFFFAOYSA-N,?,239.0,100194
100198,77-76-9,77-76-9,CC(C)(OC)OC,"2,2-DIMETHOXYPROPANE","2,2-Dimethoxypropane","2,2-dimethoxypropane",19282,DTXSID7026441,CC(C)(OC)OC,"InChI=1S/C5H12O2/c1-5(2,6-3)7-4/h1-4H3",HEWZVZIVELJPQZ-UHFFFAOYSA-N,?,83.0,100198
100202,77-84-9,77-84-9,CCC(C)(CO)CO,"2-Ethyl-2-methyl-1,3-propanediol","2-Ethyl-2-methylpropane-1,3-diol","2-Ethyl-2-methylpropane-1,3-diol",19286,DTXSID20227813,CCC(C)(CO)CO,"InChI=1S/C6H14O2/c1-3-6(2,4-7)5-8/h7-8H,3-5H2,1-2H3",VNAWKNVDKFZFSU-UHFFFAOYSA-N,?,225.8,100202
100208,78-09-1,78-09-1,CCOC(OCC)(OCC)OCC,"ETHANE, 1,1',1'',1'''-[METHANETETRAYLTETRAKIS(OX","Ethane, 1,1',1'',1'''-[methanetetrayltetrakis(oxy)]tetrakis-",triethoxymethoxyethane,19290,DTXSID1075278,CCOC(OCC)(OCC)OCC,"InChI=1S/C9H20O4/c1-5-10-9(11-6-2,12-7-3)13-8-4/h5-8H2,1-4H3",CWLNAJYDRSIKJS-UHFFFAOYSA-N,?,159.5,100208
100213,78-35-3,78-35-3,CC(C)=CCCC(C)(C=C)OC(=O)C(C)C,"3,7-Dimethyl-1,6-octadien-3-yl isobutyrate",Linalyl isobutyrate,"3,7-dimethylocta-1,6-dien-3-yl 2-methylpropanoate",19294,DTXSID6047490,CC(C)=CCCC(C)(C=C)OC(=O)C(C)C,"InChI=1S/C14H24O2/c1-7-14(6,10-8-9-11(2)3)16-13(15)12(4)5/h7,9,12H,1,8,10H2,2-6H3",JZIARAQCPRDGAC-UHFFFAOYSA-N,?,229.0,100213
100217,78-59-1,78-59-1,CC1CC(C)(C)CC(=O)C=1,ISOPHORONE,Isophorone,"3,5,5-trimethylcyclohex-2-en-1-one",19298,DTXSID8020759,CC1CC(C)(C)CC(=O)C=1,"InChI=1S/C9H14O/c1-7-4-8(10)6-9(2,3)5-7/h4H,5-6H2,1-3H3",HJOVHMDZYOCNQW-UHFFFAOYSA-N,?,215.2,100217
100221,78-74-0,78-74-0,BrCC(Br)Br,"Ethane, 1,1,2-tribromo-","Ethane, 1,1,2-tribromo-","1,1,2-Tribromoethane",19302,DTXSID4058817,BrCC(Br)Br,"InChI=1S/C2H3Br3/c3-1-2(4)5/h2H,1H2",QUMDOMSJJIFTCA-UHFFFAOYSA-N,?,188.93,100221
100225,78-78-4,78-78-4,CCC(C)C,ISOPENTANE,2-Methylbutane,2-methylbutane,19306,DTXSID8025468,CCC(C)C,"InChI=1S/C5H12/c1-4-5(2)3/h5H,4H2,1-3H3",QWTDNUCVQCZILF-UHFFFAOYSA-N,?,27.8,100225
100229,78-82-0,78-82-0,CC(C)C#N,2-METHYLPROPANENITRILE,2-Methylpropanenitrile,2-methylpropanenitrile,19310,DTXSID5026461,CC(C)C#N,"InChI=1S/C4H7N/c1-4(2)3-5/h4H,1-2H3",LRDFRRGEGBBSRN-UHFFFAOYSA-N,?,103.9,100229
100233,78-86-4,78-86-4,CCC(C)Cl,2-CHLOROBUTANE,2-Chlorobutane,2-chlorobutane,19314,DTXSID9023966,CCC(C)Cl,"InChI=1S/C4H9Cl/c1-3-4(2)5/h4H,3H2,1-2H3",BSPCSKHALVHRSR-UHFFFAOYSA-N,?,68.0,100233
100237,78-90-0,78-90-0,CC(N)CN,"1,2-DIAMINOPROPANE","1,2-Diaminopropane","propane-1,2-diamine",19318,DTXSID4021761,CC(N)CN,"InChI=1S/C3H10N2/c1-3(5)2-4/h3H,2,4-5H2,1H3",AOHJOMMDDJHIJH-UHFFFAOYSA-N,?,119.5,100237
100241,78-94-4,78-94-4,CC(=O)C=C,METHYLVINYLKETONE,Methyl vinyl ketone,but-3-en-2-one,19322,DTXSID3025671,CC(=O)C=C,"InChI=1S/C4H6O/c1-3-4(2)5/h3H,1H2,2H3",FUSUHKVFWTUUBE-UHFFFAOYSA-N,?,81.4,100241
100245,78-98-8,78-98-8,CC(=O)C=O,METHYL GLYOXAL,Methyl glyoxal,2-oxopropanal,19326,DTXSID0021628,CC(=O)C=O,"InChI=1S/C3H4O2/c1-3(5)2-4/h2H,1H3",AIJULSRZWUXGPQ-UHFFFAOYSA-N,?,72.0,100245
100249,79-02-7,79-02-7,O=CC(Cl)Cl,DICHLOROACETALDEHYDE,Dichloroacetaldehyde,dichloroacetaldehyde,19330,DTXSID3021560,O=CC(Cl)Cl,InChI=1S/C2H2Cl2O/c3-2(4)1-5/h1-2H,NWQWQKUXRJYXFH-UHFFFAOYSA-N,?,89.2,100249
100253,79-06-1,79-06-1,C=CC(N)=O,ACRYLAMIDE,Acrylamide,prop-2-enamide,19334,DTXSID5020027,C=CC(N)=O,"InChI=1S/C3H5NO/c1-2-3(4)5/h2H,1H2,(H2,4,5)",HRPVXLWXLXDGHG-UHFFFAOYSA-N,?,192.6,100253
100257,79-10-7,79-10-7,C=CC(O)=O,ACRYLIC ACID,Acrylic acid,prop-2-enoic acid,19338,DTXSID0039229,C=CC(O)=O,"InChI=1S/C3H4O2/c1-2-3(4)5/h2H,1H2,(H,4,5)",NIXOWILDQLNWCW-UHFFFAOYSA-N,?,141.2,100257
100261,79-21-0,79-21-0,CC(=O)OO,PEROXYACETIC ACID,Peracetic acid,ethaneperoxoic acid,19342,DTXSID1025853,CC(=O)OO,"InChI=1S/C2H4O3/c1-2(3)5-4/h4H,1H3",KFSLWBXXFJQRDL-UHFFFAOYSA-N,?,110.0,100261
100265,79-28-7,79-28-7,BrC(Br)=C(Br)Br,"Ethene, tetrabromo-","Ethene, 1,1,2,2-tetrabromo-","1,1,2,2-tetrabromoethene",19346,DTXSID8058821,BrC(Br)=C(Br)Br,InChI=1S/C2Br4/c3-1(4)2(5)6,OVRRJBSHBOXFQE-UHFFFAOYSA-N,?,226.0,100265
100269,79-34-5,79-34-5,ClC(Cl)C(Cl)Cl,"1,1,2,2-TETRACHLOROETHANE","1,1,2,2-Tetrachloroethane","1,1,2,2-tetrachloroethane",19350,DTXSID7021318,ClC(Cl)C(Cl)Cl,InChI=1S/C2H2Cl4/c3-1(4)2(5)6/h1-2H,QPFMBZIOSGYJDE-UHFFFAOYSA-N,?,146.5,100269
100273,79-38-9,79-38-9,FC(F)=C(F)Cl,CHLOROTRIFLUOROETHYLENE,Chlorotrifluoroethylene,"1-chloro-1,2,2-trifluoroethene",19354,DTXSID3026485,FC(F)=C(F)Cl,InChI=1S/C2ClF3/c3-1(4)2(5)6,UUAGAQFQZIEFAH-UHFFFAOYSA-N,?,-27.8,100273
100277,79-46-9,79-46-9,CC(C)[N+]([O-])=O,2-NITROPROPANE,2-Nitropropane,2-nitropropane,19358,DTXSID6020981,CC(C)[N+]([O-])=O,"InChI=1S/C3H7NO2/c1-3(2)4(5)6/h3H,1-2H3",FGLBSLMDCBOPQK-UHFFFAOYSA-N,?,120.2,100277
100281,80-10-4,80-10-4,Cl[Si](Cl)(c1ccccc1)c1ccccc1,DICHLORODIPHENYLSILANE,Dichlorodiphenylsilane,dichloro(diphenyl)silane,19362,DTXSID2026494,Cl[Si](Cl)(c1ccccc1)c1ccccc1,"InChI=1S/C12H10Cl2Si/c13-15(14,11-7-3-1-4-8-11)12-9-5-2-6-10-12/h1-10H",OSXYHAQZDCICNX-UHFFFAOYSA-N,?,305.0,100281
100285,80-55-7,80-55-7,CCOC(=O)C(C)(C)O,"PROPANOIC ACID, 2-HYDROXY-2-METHYL-, ETHYL ESTER","Propanoic acid, 2-hydroxy-2-methyl-, ethyl ester",Ethyl 2-hydroxy-2-methylpropanoate,19366,DTXSID4073885,CCOC(=O)C(C)(C)O,"InChI=1S/C6H12O3/c1-4-9-5(7)6(2,3)8/h8H,4H2,1-3H3",GFUIDHWFLMPAGY-UHFFFAOYSA-N,?,150.0,100285
100289,80-73-9,80-73-9,CN1CCN(C)C1=O,"1,3-Dimethyl-2-imidazolidinone","N,N'-Dimethylimidazolidinone","1,3-Dimethylimidazolidin-2-one",19370,DTXSID1073153,CN1CCN(C)C1=O,"InChI=1S/C5H10N2O/c1-6-3-4-7(2)5(6)8/h3-4H2,1-2H3",CYSGHNMQYZDMIA-UHFFFAOYSA-N,?,221.0,100289
100293,83-32-9,83-32-9,C1Cc2cccc3cccc1c23,ACENAPHTHENE,Acenaphthene,"1,2-dihydroacenaphthylene",19374,DTXSID3021774,C1Cc2cccc3cccc1c23,"InChI=1S/C12H10/c1-3-9-4-2-6-11-8-7-10(5-1)12(9)11/h1-6H,7-8H2",CWRYPZZKDGJXCA-UHFFFAOYSA-N,?,279.0,100293
100297,83-42-1,83-42-1,Cc1c(Cl)cccc1[N+]([O-])=O,"BENZENE, 1-CHLORO-2-METHYL-3-NITRO-",1-Chloro-2-methyl-3-nitrobenzene,1-chloro-2-methyl-3-nitrobenzene,19378,DTXSID1041263,Cc1c(Cl)cccc1[N+]([O-])=O,"InChI=1S/C7H6ClNO2/c1-5-6(8)3-2-4-7(5)9(10)11/h2-4H,1H3",XCSNRORTQRKCHB-UHFFFAOYSA-N,?,238.0,100297
100301,84-65-1,84-65-1,O=C1c2ccccc2C(=O)c2ccccc12,ANTHRAQUINONE,Anthraquinone,"anthracene-9,10-dione",19382,DTXSID3020095,O=C1c2ccccc2C(=O)c2ccccc12,InChI=1S/C14H8O2/c15-13-9-5-1-2-6-10(9)14(16)12-8-4-3-7-11(12)13/h1-8H,RZVHIXYEVGDQDX-UHFFFAOYSA-N,?,377.0,100301
100305,84-95-7,84-95-7,CCN(CC)c1cccc2ccccc21,"1-Naphthalenamine, N,N-diethyl-","1-Naphthalenamine, N,N-diethyl-","N,N-diethylnaphthalen-1-amine",19386,DTXSID7058915,CCN(CC)c1cccc2ccccc21,"InChI=1S/C14H17N/c1-3-15(4-2)14-11-7-9-12-8-5-6-10-13(12)14/h5-11H,3-4H2,1-2H3",XLEMRIJDZGESRG-UHFFFAOYSA-N,?,285.0,100305
100309,85-52-9,85-52-9,OC(=O)c1ccccc1C(=O)c1ccccc1,2-Benzoylbenzoic acid,"Benzoic acid, 2-benzoyl-",2-(benzoyl)benzoic acid,19390,DTXSID6058924,OC(=O)c1ccccc1C(=O)c1ccccc1,"InChI=1S/C14H10O3/c15-13(10-6-2-1-3-7-10)11-8-4-5-9-12(11)14(16)17/h1-9H,(H,16,17)",FGTYTUFKXYPTML-UHFFFAOYSA-N,?,261.0,100309
100313,86-26-0,86-26-0,COc1ccccc1-c1ccccc1,"1,1'-Biphenyl, 2-methoxy-",Biphenyl-2-yl methyl ether,biphenyl-2-yl methyl ether,19394,DTXSID6052584,COc1ccccc1-c1ccccc1,"InChI=1S/C13H12O/c1-14-13-10-6-5-9-12(13)11-7-3-2-4-8-11/h2-10H,1H3",NLWCWEGVNJVLAX-UHFFFAOYSA-N,?,274.0,100313
100318,86-57-7,86-57-7,[O-][N+](=O)c1cccc2ccccc21,1-NITRONAPHTHALENE,1-Nitronaphthalene,1-nitronaphthalene,19398,DTXSID7020978,[O-][N+](=O)c1cccc2ccccc21,InChI=1S/C10H7NO2/c12-11(13)10-7-3-5-8-4-1-2-6-9(8)10/h1-7H,RJKGJBPXVHTNJL-UHFFFAOYSA-N,?,304.0,100318
100322,87-19-4,87-19-4,CC(C)COC(=O)c1ccccc1O,"Benzoic acid, 2-hydroxy-, 2-methylpropyl ester",Isobutyl salicylate,2-methylpropyl 2-hydroxybenzoate,19402,DTXSID3047186,CC(C)COC(=O)c1ccccc1O,"InChI=1S/C11H14O3/c1-8(2)7-14-11(13)9-5-3-4-6-10(9)12/h3-6,8,12H,7H2,1-2H3",PTXDBYSCVQQBNF-UHFFFAOYSA-N,?,261.0,100322
100326,87-40-1,87-40-1,COc1c(Cl)cc(Cl)cc1Cl,"2,4,6-TRICHLOROANISOLE","Benzene, 1,3,5-trichloro-2-methoxy-","1,3,5-Trichloro-2-methoxybenzene",19406,DTXSID9073886,COc1c(Cl)cc(Cl)cc1Cl,"InChI=1S/C7H5Cl3O/c1-11-7-5(9)2-4(8)3-6(7)10/h2-3H,1H3",WCVOGSZTONGSQY-UHFFFAOYSA-N,?,241.0,100326
100330,87-61-6,87-61-6,Clc1c(Cl)cccc1Cl,"1,2,3-TRICHLOROBENZENE","1,2,3-Trichlorobenzene",C6H3Cl3,19410,DTXSID8026193,Clc1c(Cl)cccc1Cl,InChI=1S/C6H3Cl3/c7-4-2-1-3-5(8)6(4)9/h1-3H,RELMFMZEBKVZJC-UHFFFAOYSA-N,?,218.5,100330
100334,87-65-0,87-65-0,Oc1c(Cl)cccc1Cl,"2,6-DICHLOROPHENOL","2,6-Dichlorophenol","2,6-dichlorophenol",19414,DTXSID2025004,Oc1c(Cl)cccc1Cl,"InChI=1S/C6H4Cl2O/c7-4-2-1-3-5(8)6(4)9/h1-3,9H",HOLHYSJJBXSLMV-UHFFFAOYSA-N,?,220.0,100334
100338,87-86-5,87-86-5,Oc1c(Cl)c(Cl)c(Cl)c(Cl)c1Cl,PENTACHLOROPHENOL,Pentachlorophenol,pentachlorophenol,19418,DTXSID7021106,Oc1c(Cl)c(Cl)c(Cl)c(Cl)c1Cl,InChI=1S/C6HCl5O/c7-1-2(8)4(10)6(12)5(11)3(1)9/h12H,IZUPBVBPLAPZRR-UHFFFAOYSA-N,?,309.5,100338
100343,88-06-2,88-06-2,Oc1c(Cl)cc(Cl)cc1Cl,"2,4,6-TRICHLOROPHENOL","2,4,6-Trichlorophenol",C6H3Cl3O,19422,DTXSID5021386,Oc1c(Cl)cc(Cl)cc1Cl,"InChI=1S/C6H3Cl3O/c7-3-1-4(8)6(10)5(9)2-3/h1-2,10H",LINPIYWFGCPVIE-UHFFFAOYSA-N,?,246.0,100343
100347,88-15-3,88-15-3,CC(=O)c1ccc[s]1,2-ACETYLTHIOPHENE,"Ethanone, 1-(2-thienyl)-",1-thiophen-2-ylethanone,19426,DTXSID2058960,CC(=O)c1ccc[s]1,"InChI=1S/C6H6OS/c1-5(7)6-3-2-4-8-6/h2-4H,1H3",WYJOVVXUZNRJQY-UHFFFAOYSA-N,?,213.5,100347
100351,88-68-6,88-68-6,Nc1ccccc1C(N)=O,"BENZAMIDE, 2-AMINO-",2-Aminobenzamide,2-aminobenzamide,19430,DTXSID2021789,Nc1ccccc1C(N)=O,"InChI=1S/C7H8N2O/c8-6-4-2-1-3-5(6)7(9)10/h1-4H,8H2,(H2,9,10)",PXBFMLJZNCDSMP-UHFFFAOYSA-N,?,300.0,100351
100355,88-74-4,88-74-4,Nc1ccccc1[N+]([O-])=O,2-NITROANILINE,2-Nitroaniline,2-nitroaniline,19434,DTXSID1025726,Nc1ccccc1[N+]([O-])=O,"InChI=1S/C6H6N2O2/c7-5-3-1-2-4-6(5)8(9)10/h1-4H,7H2",DPJCXCZTLWNFOH-UHFFFAOYSA-N,?,284.0,100355