ChemID,source_casrn,CAS,SMILES,NAME,preferred_name,iupac,MPID,dsstox_substance_id,Canonical_QSARr,InChI_Code_QSARr,InChI Key_QSARr,Salt_Solvent,Salt_Solvent_ID,MP,ID
100448,74-87-3,74-87-3,CCl,METHYL CHLORIDE,Chloromethane,chloromethane,27805,DTXSID0021541,CCl,InChI=1S/CH3Cl/c1-2/h1H3,NEHMKBQYUWJMIP-UHFFFAOYSA-N,?,,-97.7,100448
100451,74-90-8,74-90-8,C#N,HYDROCYANIC ACID,Hydrogen cyanide,hydrocyanic acid,27807,DTXSID9024148,C#N,InChI=1S/CHN/c1-2/h1H,LELOWRISYMNNSU-UHFFFAOYSA-N,?,,-13.4,100451
100452,74-93-1,74-93-1,CS,METHANETHIOL,Methanethiol,methanethiol,27808,DTXSID5026382,CS,"InChI=1S/CH4S/c1-2/h2H,1H3",LSDPWZHWYPCBBB-UHFFFAOYSA-N,?,,-123.0,100452
100454,74-95-3,74-95-3,BrCBr,DIBROMOMETHANE,Dibromomethane,dibromomethane,27810,DTXSID4021557,BrCBr,InChI=1S/CH2Br2/c2-1-3/h1H2,FJBFPHVGVWTDIP-UHFFFAOYSA-N,?,,-52.5,100454
100455,74-96-4,74-96-4,CCBr,BROMOETHANE,Bromoethane,bromoethane,27811,DTXSID6020199,CCBr,"InChI=1S/C2H5Br/c1-2-3/h2H2,1H3",RDHPKYGYEGBMSE-UHFFFAOYSA-N,?,,-118.6,100455
100456,74-97-5,74-97-5,ClCBr,CHLOROBROMOMETHANE,Bromochloromethane,bromo(chloro)methane,27812,DTXSID4021503,ClCBr,InChI=1S/CH2BrCl/c2-1-3/h1H2,JPOXNPPZZKNXOV-UHFFFAOYSA-N,?,,-87.9,100456
100458,74-99-7,74-99-7,CC#C,PROPYNE,1-Propyne,prop-1-yne,27814,DTXSID0026387,CC#C,"InChI=1S/C3H4/c1-3-2/h1H,2H3",MWWATHDPGQKSAR-UHFFFAOYSA-N,?,,-102.7,100458
100459,75-00-3,75-00-3,CCCl,CHLOROETHANE,Chloroethane,chloroethane,27815,DTXSID1020302,CCCl,"InChI=1S/C2H5Cl/c1-2-3/h2H2,1H3",HRYZWHHZPQKTII-UHFFFAOYSA-N,?,,-138.7,100459
100460,75-01-4,75-01-4,C=CCl,VINYLCHLORIDE,Vinyl chloride,chloroethene,27816,DTXSID8021434,C=CCl,"InChI=1S/C2H3Cl/c1-2-3/h2H,1H2",BZHJMEDXRYGGRV-UHFFFAOYSA-N,?,,-153.7,100460
100462,75-03-6,75-03-6,CCI,IODOETHANE,"Ethane, iodo-",Iodoethane,27818,DTXSID9058783,CCI,"InChI=1S/C2H5I/c1-2-3/h2H2,1H3",HVTICUPFWKNHNG-UHFFFAOYSA-N,?,,-111.1,100462
100463,75-04-7,75-04-7,CCN,ETHYLAMINE,Ethanamine,ethanamine,27819,DTXSID8025678,CCN,"InChI=1S/C2H7N/c1-2-3/h2-3H2,1H3",QUSNBJAOOMFDIB-UHFFFAOYSA-N,?,,-81.2,100463
100464,75-05-8,75-05-8,CC#N,ACETONITRILE,Acetonitrile,acetonitrile,27820,DTXSID7020009,CC#N,InChI=1S/C2H3N/c1-2-3/h1H3,WEVYAHXRMPXWCK-UHFFFAOYSA-N,?,,-43.8,100464
100466,75-08-1,75-08-1,CCS,ETHYL MERCAPTAN,Ethanethiol,ethanethiol,27822,DTXSID9026394,CCS,"InChI=1S/C2H6S/c1-2-3/h3H,2H2,1H3",DNJIEGIFACGWOD-UHFFFAOYSA-N,?,,-147.8,100466
100467,75-09-2,75-09-2,ClCCl,DICHLOROMETHANE,Dichloromethane,dichloromethane,27823,DTXSID0020868,ClCCl,InChI=1S/CH2Cl2/c2-1-3/h1H2,YMWUJEATGCHHMB-UHFFFAOYSA-N,?,,-95.1,100467
100468,75-10-5,75-10-5,FCF,DIFLUOROMETHANE,"Methane, difluoro-",difluoromethane,27824,DTXSID6029597,FCF,InChI=1S/CH2F2/c2-1-3/h1H2,RWRIWBAIICGTTQ-UHFFFAOYSA-N,?,,-136.0,100468
100470,75-12-7,75-12-7,NC=O,FORMAMIDE,Formamide,formamide,27826,DTXSID8025337,NC=O,"InChI=1S/CH3NO/c2-1-3/h1H,(H2,2,3)",ZHNUHDYFZUAESO-UHFFFAOYSA-N,?,,2.55,100470
100471,75-15-0,75-15-0,S=C=S,CARBON DISULFIDE,Carbon disulfide,methanedithione,27827,DTXSID6023947,S=C=S,InChI=1S/CS2/c2-1-3,QGJOPFRUJISHPQ-UHFFFAOYSA-N,?,,-111.5,100471
100473,75-18-3,75-18-3,CSC,DIMETHYLSULFIDE,Dimethyl sulfide,dimethyl sulfide,27828,DTXSID9026398,CSC,InChI=1S/C2H6S/c1-3-2/h1-2H3,QMMFVYPAHWMCMS-UHFFFAOYSA-N,?,,-98.3,100473
100475,75-21-8,75-21-8,C1CO1,ETHYLENE OXIDE,Ethylene oxide,oxirane,27830,DTXSID0020600,C1CO1,InChI=1S/C2H4O/c1-2-3-1/h1-2H2,IAYPIBMASNFSPL-UHFFFAOYSA-N,?,,-111.7,100475
100477,75-23-0,75-23-0,CCN.FB(F)F,"Boron, (ethanamine)trifluoro-, (T-4)-",Ethylamine-boron trifluoride,ethanamine - trifluoroborane (1:1),27831,DTXSID2052497,FB(F)F,InChI=1S/BF3/c2-1(3)4,WTEOIRVLGSZEPR-UHFFFAOYSA-N,NCC,61,87.0,100477
100479,75-25-2,75-25-2,BrC(Br)Br,BROMOFORM,Bromoform,tribromomethane,27832,DTXSID1021374,BrC(Br)Br,InChI=1S/CHBr3/c2-1(3)4/h1H,DIKBFYAXUHHXCS-UHFFFAOYSA-N,?,,8.0,100479
100481,75-27-4,75-27-4,ClC(Cl)Br,BROMODICHLOROMETHANE,Bromodichloromethane,bromo(dichloro)methane,27834,DTXSID1020198,ClC(Cl)Br,InChI=1S/CHBrCl2/c2-1(3)4/h1H,FMWLUWPQPKEARP-UHFFFAOYSA-N,?,,-57.0,100481
100482,75-28-5,75-28-5,CC(C)C,2-METHYLPROPANE,Isobutane,2-methylpropane,27835,DTXSID1026401,CC(C)C,"InChI=1S/C4H10/c1-4(2)3/h4H,1-3H3",NNPPMTNAJDCUHE-UHFFFAOYSA-N,?,,-138.3,100482
100483,75-29-6,75-29-6,CC(C)Cl,2-CHLOROPROPANE,2-Chloropropane,2-chloropropane,27836,DTXSID6047739,CC(C)Cl,"InChI=1S/C3H7Cl/c1-3(2)4/h3H,1-2H3",ULYZAYCEDJDHCC-UHFFFAOYSA-N,?,,-117.2,100483
100485,75-31-0,75-31-0,CC(C)N,ISOPROPYLAMINE,Isopropylamine,propan-2-amine,27838,DTXSID2025682,CC(C)N,"InChI=1S/C3H9N/c1-3(2)4/h3H,4H2,1-2H3",JJWLVOIRVHMVIS-UHFFFAOYSA-N,?,,-95.1,100485
100486,75-33-2,75-33-2,CC(C)S,2-PROPANETHIOL,Isopropyl mercaptan,propane-2-thiol,27839,DTXSID1025481,CC(C)S,"InChI=1S/C3H8S/c1-3(2)4/h3-4H,1-2H3",KJRCEJOSASVSRA-UHFFFAOYSA-N,?,,-130.5,100486
100487,75-34-3,75-34-3,CC(Cl)Cl,"1,1-DICHLOROETHANE","1,1-Dichloroethane","1,1-dichloroethane",27840,DTXSID1020437,CC(Cl)Cl,"InChI=1S/C2H4Cl2/c1-2(3)4/h2H,1H3",SCYULBFZEHDVBN-UHFFFAOYSA-N,?,,-96.9,100487
100489,75-36-5,75-36-5,CC(=O)Cl,ACETYLCHLORIDE,Acetyl chloride,acetyl chloride,27842,DTXSID2023852,CC(=O)Cl,InChI=1S/C2H3ClO/c1-2(3)4/h1H3,WETWJCDKMRHUPV-UHFFFAOYSA-N,?,,-112.8,100489
100490,75-37-6,75-37-6,CC(F)F,"1,1-DIFLUOROETHANE","1,1-Difluoroethane","1,1-difluoroethane",27843,DTXSID0024050,CC(F)F,"InChI=1S/C2H4F2/c1-2(3)4/h2H,1H3",NPNPZTNLOVBDOC-UHFFFAOYSA-N,?,,-117.0,100490
100491,75-38-7,75-38-7,C=C(F)F,"1,1-DIFLUOROETHENE",Vinylidene fluoride,"1,1-difluoroethene",27844,DTXSID3021439,C=C(F)F,InChI=1S/C2H2F2/c1-2(3)4/h1H2,BQCIDUSAKPWEOX-UHFFFAOYSA-N,?,,-144.0,100491
100494,75-44-5,75-44-5,O=C(Cl)Cl,PHOSGENE,Phosgene,carbonyl dichloride,27846,DTXSID0024260,O=C(Cl)Cl,InChI=1S/CCl2O/c2-1(3)4,YGYAWVDWMABLBF-UHFFFAOYSA-N,?,,-118.0,100494
100495,75-45-6,75-45-6,FC(F)Cl,CHLORODIFLUOROMETHANE,Chlorodifluoromethane,chloro(difluoro)methane,27847,DTXSID6020301,FC(F)Cl,InChI=1S/CHClF2/c2-1(3)4/h1H,VOPWNXZWBYDODV-UHFFFAOYSA-N,?,,-157.4,100495
100496,75-46-7,75-46-7,FC(F)F,TRIFLUOROMETHANE,Trifluoromethane,trifluoromethane,27848,DTXSID0026410,FC(F)F,InChI=1S/CHF3/c2-1(3)4/h1H,XPDWGBQVDMORPB-UHFFFAOYSA-N,?,,-155.1,100496
100499,75-52-5,75-52-5,C[N+]([O-])=O,NITROMETHANE,Nitromethane,nitromethane,27850,DTXSID2020977,C[N+]([O-])=O,InChI=1S/CH3NO2/c1-2(3)4/h1H3,LYGJENNIWJXYER-UHFFFAOYSA-N,?,,-28.5,100499
100500,75-54-7,75-54-7,C[SiH](Cl)Cl,DICHLOROMETHYLSILANE,Methyldichlorosilane,dichloro(methyl)silane,27851,DTXSID5026413,C[SiH](Cl)Cl,"InChI=1S/CH4Cl2Si/c1-4(2)3/h4H,1H3",NWKBSEBOBPHMKL-UHFFFAOYSA-N,?,,-93.0,100500
100502,75-56-9,75-56-9,CC1CO1,PROPYLENE OXIDE,"1,2-Propylene oxide",2-methyloxirane,27853,DTXSID5021207,CC1CO1,"InChI=1S/C3H6O/c1-3-2-4-3/h3H,2H2,1H3",GOOHAUXETOMSMM-UHFFFAOYSA-N,?,,-111.9,100502
100503,75-60-5,75-60-5,C[As](C)(O)=O,CACODYLIC ACID,Dimethylarsinic acid,dimethylarsinic acid,27854,DTXSID7020508,C[As](C)(O)=O,"InChI=1S/C2H7AsO2/c1-3(2,4)5/h1-2H3,(H,4,5)",OGGXGZAMXPVRFZ-UHFFFAOYSA-N,?,,195.0,100503
100504,75-61-6,75-61-6,FC(F)(Br)Br,DIBROMODIFLUOROMETHANE,Dibromodifluoromethane,dibromo-difluoromethane,27855,DTXSID9058789,FC(F)(Br)Br,"InChI=1S/CBr2F2/c2-1(3,4)5",AZSZCFSOHXEJQE-UHFFFAOYSA-N,?,,-110.1,100504
100506,75-63-8,75-63-8,FC(F)(F)Br,BROMOTRIFLUOROMETHANE,Bromotrifluoromethane,bromo(trifluoro)methane,27857,DTXSID5026415,FC(F)(F)Br,"InChI=1S/CBrF3/c2-1(3,4)5",RJCQBQGAPKAMLL-UHFFFAOYSA-N,?,,-172.0,100506
100507,75-64-9,75-64-9,CC(C)(C)N,T-BUTYLAMINE,tert-Butylamine,2-methylpropan-2-amine,27858,DTXSID5024681,CC(C)(C)N,"InChI=1S/C4H11N/c1-4(2,3)5/h5H2,1-3H3",YBRBMKDOPFTVDT-UHFFFAOYSA-N,?,,-72.65,100507
100508,75-65-0,75-65-0,CC(C)(C)O,T-BUTANOL,tert-Butyl alcohol,2-methylpropan-2-ol,27859,DTXSID8020204,CC(C)(C)O,"InChI=1S/C4H10O/c1-4(2,3)5/h5H,1-3H3",DKGAVHZHDRPRBM-UHFFFAOYSA-N,?,,25.4,100508
100510,75-68-3,75-68-3,CC(F)(F)Cl,"1-CHLORO-1,1-DIFLUOROETHANE","1-Chloro-1,1-difluoroethane","1-chloro-1,1-difluoroethane",27861,DTXSID9023960,CC(F)(F)Cl,"InChI=1S/C2H3ClF2/c1-2(3,4)5/h1H3",BHNZEZWIUMJCGF-UHFFFAOYSA-N,?,,-130.8,100510
100511,75-69-4,75-69-4,FC(Cl)(Cl)Cl,TRICHLOROFLUOROMETHANE,Trichlorofluoromethane,trichloro(fluoro)methane,27862,DTXSID5021384,FC(Cl)(Cl)Cl,"InChI=1S/CCl3F/c2-1(3,4)5",CYRMSUTZVYGINF-UHFFFAOYSA-N,?,,-111.1,100511
100512,75-71-8,75-71-8,FC(F)(Cl)Cl,DICHLORODIFLUOROMETHANE,Dichlorodifluoromethane,dichloro(difluoro)methane,27863,DTXSID6020436,FC(F)(Cl)Cl,"InChI=1S/CCl2F2/c2-1(3,4)5",PXBRQCKWGAHEHS-UHFFFAOYSA-N,?,,-158.0,100512
100514,75-73-0,75-73-0,FC(F)(F)F,TETRAFLUOROMETHANE,Carbon tetrafluoride,tetrafluoromethane,27865,DTXSID2041757,FC(F)(F)F,"InChI=1S/CF4/c2-1(3,4)5",TXEYQDLBPFQVAA-UHFFFAOYSA-N,?,,-183.5,100514
100516,75-75-2,75-75-2,CS(O)(=O)=O,METHANESULFONIC ACID,Methanesulfonic acid,CH4O3S,27866,DTXSID4026422,CS(O)(=O)=O,"InChI=1S/CH4O3S/c1-5(2,3)4/h1H3,(H,2,3,4)",AFVFQIVMOAPDHO-UHFFFAOYSA-N,?,,20.0,100516
100517,75-76-3,75-76-3,C[Si](C)(C)C,TETRAMETHYLSILANE,Tetramethylsilane,tetramethylsilane,27867,DTXSID9026423,C[Si](C)(C)C,"InChI=1S/C4H12Si/c1-5(2,3)4/h1-4H3",CZDYPVPMEAXLPK-UHFFFAOYSA-N,?,,-99.0,100517
100520,75-79-6,75-79-6,C[Si](Cl)(Cl)Cl,METHYLTRICHLOROSILANE,Methyltrichlorosilane,trichloro(methyl)silane,27869,DTXSID4026426,C[Si](Cl)(Cl)Cl,"InChI=1S/CH3Cl3Si/c1-5(2,3)4/h1H3",JLUFWMXJHAVVNN-UHFFFAOYSA-N,?,,-90.0,100520
100521,75-80-9,75-80-9,OCC(Br)(Br)Br,"ETHANOL, 2,2,2-TRIBROMO-","2,2,2-Tribromoethanol","2,2,2-tribromoethanol",27870,DTXSID2023698,OCC(Br)(Br)Br,"InChI=1S/C2H3Br3O/c3-2(4,5)1-6/h6H,1H2",YFDSDPIBEUFTMI-UHFFFAOYSA-N,?,,81.0,100521
100524,75-83-2,75-83-2,CCC(C)(C)C,"2,2-DIMETHYLBUTANE","2,2-Dimethylbutane","2,2-dimethylbutane",27872,DTXSID4025111,CCC(C)(C)C,"InChI=1S/C6H14/c1-5-6(2,3)4/h5H2,1-4H3",HNRMPXKDFBEGFZ-UHFFFAOYSA-N,?,,-99.0,100524
100525,75-84-3,75-84-3,CC(C)(C)CO,"2,2-DIMETHYL-1-PROPANOL","2,2-Dimethylpropanol","2,2-dimethylpropan-1-ol",27873,DTXSID9052501,CC(C)(C)CO,"InChI=1S/C5H12O/c1-5(2,3)4-6/h6H,4H2,1-3H3",KPSSIOMAKSHJJG-UHFFFAOYSA-N,?,,52.5,100525
100526,75-85-4,75-85-4,CCC(C)(C)O,2-METHYL-2-BUTANOL,2-Methyl-2-butanol,2-methylbutan-2-ol,27874,DTXSID0041436,CCC(C)(C)O,"InChI=1S/C5H12O/c1-4-5(2,3)6/h6H,4H2,1-3H3",MSXVEPNJUHWQHW-UHFFFAOYSA-N,?,,-9.1,100526
100528,75-87-6,75-87-6,O=CC(Cl)(Cl)Cl,TRICHLOROACETALDEHYDE,Chloral,trichloroacetaldehyde,27876,DTXSID7024744,O=CC(Cl)(Cl)Cl,"InChI=1S/C2HCl3O/c3-2(4,5)1-6/h1H",HFFLGKNGCAIQMO-UHFFFAOYSA-N,?,,-57.5,100528
100529,75-88-7,75-88-7,FC(F)(F)CCl,"1,1,1-TRIFLUORO-2-CHLOROETHANE","2-Chloro-1,1,1-trifluoroethane","2-chloro-1,1,1-trifluoroethane",27877,DTXSID5020289,FC(F)(F)CCl,"InChI=1S/C2H2ClF3/c3-1-2(4,5)6/h1H2",CYXIKYKBLDZZNW-UHFFFAOYSA-N,?,,-105.5,100529
100530,75-89-8,75-89-8,OCC(F)(F)F,"2,2,2-TRIFLUOROETHANOL","2,2,2-Trifluoroethanol","2,2,2-trifluoroethanol",27878,DTXSID0021751,OCC(F)(F)F,"InChI=1S/C2H3F3O/c3-2(4,5)1-6/h6H,1H2",RHQDFWAXVIIEBN-UHFFFAOYSA-N,?,,-43.5,100530
100532,75-94-5,75-94-5,C=C[Si](Cl)(Cl)Cl,VINYLTRICHLOROSILANE,Trichloroethenylsilane,trichloro(ethenyl)silane,27880,DTXSID8026430,C=C[Si](Cl)(Cl)Cl,"InChI=1S/C2H3Cl3Si/c1-2-6(3,4)5/h2H,1H2",GQIUQDDJKHLHTB-UHFFFAOYSA-N,?,,-95.0,100532
100533,75-95-6,75-95-6,BrC(Br)C(Br)(Br)Br,Pentabromoethane,Pentabromoethane,"1,1,1,2,2-pentabromoethane",27881,DTXSID8025830,BrC(Br)C(Br)(Br)Br,"InChI=1S/C2HBr5/c3-1(4)2(5,6)7/h1H",OGVPXEPSTZMAFF-UHFFFAOYSA-N,?,,56.5,100533
100534,75-96-7,75-96-7,OC(=O)C(Br)(Br)Br,"Acetic acid, tribromo-",Tribromoacetic acid,tribromoacetic acid,27882,DTXSID6021668,OC(=O)C(Br)(Br)Br,"InChI=1S/C2HBr3O2/c3-2(4,5)1(6)7/h(H,6,7)",QIONYIKHPASLHO-UHFFFAOYSA-N,?,,132.0,100534
100536,75-98-9,75-98-9,CC(C)(C)C(O)=O,"2,2-Dimethyl propanoic acid","2,2-Dimethylpropanoic acid","2,2-dimethylpropanoic acid",27884,DTXSID8026432,CC(C)(C)C(O)=O,"InChI=1S/C5H10O2/c1-5(2,3)4(6)7/h1-3H3,(H,6,7)",IUGYQRQAERSCNH-UHFFFAOYSA-N,?,,35.0,100536
100537,75-99-0,75-99-0,CC(Cl)(Cl)C(O)=O,DALAPON,Dalapon,"2,2-dichloropropanoic acid",27885,DTXSID2021575,CC(Cl)(Cl)C(O)=O,"InChI=1S/C3H4Cl2O2/c1-3(4,5)2(6)7/h1H3,(H,6,7)",NDUPDOJHUQKPAG-UHFFFAOYSA-N,?,,-5.0,100537
100538,76-00-6,NOCAS_870395,CC(O)C(Cl)(Cl)Cl,"1,1,1-Trichloro-2-propanol",,,27886,DTXSID90870395,CC(O)C(Cl)(Cl)Cl,"InChI=1S/C3H5Cl3O/c1-2(7)3(4,5)6/h2,7H,1H3",HCMBPASAOZIEDZ-UHFFFAOYSA-N,?,,50.5,100538
100541,76-03-9,76-03-9,OC(=O)C(Cl)(Cl)Cl,TRICHLOROACETIC ACID,Trichloroacetic acid,trichloroacetic acid,27888,DTXSID1021378,OC(=O)C(Cl)(Cl)Cl,"InChI=1S/C2HCl3O2/c3-2(4,5)1(6)7/h(H,6,7)",YNJBWRMUSHSURL-UHFFFAOYSA-N,?,,57.5,100541
100542,76-04-0,76-04-0,OC(=O)C(F)(F)Cl,"Acetic acid, chlorodifluoro-","Acetic acid, chlorodifluoro-","2-chloro-2,2-difluoroacetic acid",27889,DTXSID8058792,OC(=O)C(F)(F)Cl,"InChI=1S/C2HClF2O2/c3-2(4,5)1(6)7/h(H,6,7)",OAWAZQITIZDJRB-UHFFFAOYSA-N,?,,25.0,100542
100544,76-06-2,76-06-2,[O-][N+](=O)C(Cl)(Cl)Cl,TRICHLORONITROMETHANE,Chloropicrin,trichloro(nitro)methane,27891,DTXSID0020315,[O-][N+](=O)C(Cl)(Cl)Cl,"InChI=1S/CCl3NO2/c2-1(3,4)5(6)7",LFHISGNCFUNFFM-UHFFFAOYSA-N,?,,-64.0,100544
100545,76-08-4,NOCAS_870396,CC(C)(O)C(Br)(Br)Br,TRIBROMO-TERT-BUTYL ALCOHOL,,,27892,DTXSID50870396,CC(C)(O)C(Br)(Br)Br,"InChI=1S/C4H7Br3O/c1-3(2,8)4(5,6)7/h8H,1-2H3",JUGRTVJQTFZHOM-UHFFFAOYSA-N,?,,169.0,100545
100546,76-09-5,76-09-5,CC(C)(O)C(C)(C)O,PINACOL,"2,3-Butanediol, 2,3-dimethyl-","2,3-Dimethylbutane-2,3-diol",27893,DTXSID3058793,CC(C)(O)C(C)(C)O,"InChI=1S/C6H14O2/c1-5(2,7)6(3,4)8/h7-8H,1-4H3",IVDFJHOHABJVEH-UHFFFAOYSA-N,?,,43.0,100546
100548,76-12-0,76-12-0,FC(Cl)(Cl)C(F)(Cl)Cl,"1,1,2,2,-TETRACHLORODIFLUOROETHANE","1,2-Difluoro-1,1,2,2-tetrachloroethane","1,1,2,2-tetrachloro-1,2-difluoroethane",27895,DTXSID5026091,FC(Cl)(Cl)C(F)(Cl)Cl,"InChI=1S/C2Cl4F2/c3-1(4,7)2(5,6)8",UGCSPKPEHQEOSR-UHFFFAOYSA-N,?,,26.0,100548
100549,76-13-1,76-13-1,FC(F)(Cl)C(F)(Cl)Cl,"1,1,2-TRICHLOROTRIFLUOROETHANE","1,1,2-Trichloro-1,2,2-trifluoroethane","1,1,2-trichloro-1,2,2-trifluoroethane",27896,DTXSID6021377,FC(F)(Cl)C(F)(Cl)Cl,"InChI=1S/C2Cl3F3/c3-1(4,6)2(5,7)8",AJDIZQLSFPQPEY-UHFFFAOYSA-N,?,,-35.0,100549
100550,76-14-2,76-14-2,FC(F)(Cl)C(F)(F)Cl,"1,2-DICHLOROTETRAFLUOROETHANE","1,2-Dichloro-1,1,2,2-tetrafluoroethane","1,2-dichloro-1,1,2,2-tetrafluoroethane",27897,DTXSID8026434,FC(F)(Cl)C(F)(F)Cl,"InChI=1S/C2Cl2F4/c3-1(5,6)2(4,7)8",DDMOUSALMHHKOS-UHFFFAOYSA-N,?,,-94.0,100550
100552,76-16-4,76-16-4,FC(F)(F)C(F)(F)F,HEXAFLUOROETHANE,"Ethane, hexafluoro-",hexafluoroethane,27899,DTXSID2041915,FC(F)(F)C(F)(F)F,"InChI=1S/C2F6/c3-1(4,5)2(6,7)8",WMIYKQLTONQJES-UHFFFAOYSA-N,?,,-100.7,100552
100553,76-17-5,76-17-5,FC(Cl)(C(F)(F)Cl)C(F)(F)Cl,"Propane, 1,2,3-trichloro-1,1,2,3,3-pentafluoro-","Propane, 1,2,3-trichloro-1,1,2,3,3-pentafluoro-","1,2,3-trichloro-1,1,2,3,3-pentafluoropropane",27900,DTXSID8058794,FC(Cl)(C(F)(F)Cl)C(F)(F)Cl,"InChI=1S/C3Cl3F5/c4-1(7,2(5,8)9)3(6,10)11",AIDLQDHQDQZVQM-UHFFFAOYSA-N,?,,-72.0,100553
100554,76-19-7,76-19-7,FC(F)(C(F)(F)F)C(F)(F)F,OCTAFLUOROPROPANE,Perflutren,octafluoropropane,27901,DTXSID9052503,FC(F)(C(F)(F)F)C(F)(F)F,"InChI=1S/C3F8/c4-1(5,2(6,7)8)3(9,10)11",QYSGYZVSCZSLHT-UHFFFAOYSA-N,?,,-147.6,100554
100556,76-22-2|464-48-2|464-49-3,76-22-2|464-48-2|464-49-3,CC1(C)C2CC(=O)C1(C)CC2,"CAMPHOR, Bicyclo(2.2.1)heptan-2-one, 1,7,7-trimethyl-, (1, (1R,4R)-(+)-CAMPHOR",Camphor,"1,7,7-trimethylbicyclo[2.2.1]heptan-2-one",27903|30468|30469,DTXSID5030955|DTXSID8022036|DTXSID4024721,CC1(C)C2CC(=O)C1(C)CC2,"InChI=1S/C10H16O/c1-9(2)7-4-5-10(9,3)8(11)6-7/h7H,4-6H2,1-3H3",DSSYKIVIOFKYAU-UHFFFAOYSA-N,?,,179.26666666669996,100556
100557,76-23-3,NOCAS_861623,CCCC(CC)C1(CC)C(=O)NC(=O)NC1=O,Tetrabarbital,,,27904,DTXSID50861623,CCCC(CC)C1(CC)C(=O)NC(=O)NC1=O,"InChI=1S/C12H20N2O3/c1-4-7-8(5-2)12(6-3)9(15)13-11(17)14-10(12)16/h8H,4-7H2,1-3H3,(H2,13,14,15,16,17)",ZLUNGGZJSQDFPH-UHFFFAOYSA-N,?,,122.0,100557
100558,76-25-5,76-25-5,CC1(C)O[C@@]2([C@@H](C[C@H]3[C@@H]4CCC5=CC(=O)C=C[C@]5(C)[C@@]4(F)[C@@H](O)C[C@]23C)O1)C(=O)CO,TRIAMCINOLONE ACETONIDE,Triamcinolone acetonide,"(4aS,4bR,5S,6aS,6bS,9aR,10aS,10bS)-4b-fluoro-5-hydroxy-6b-(hydroxyacetyl)-4a,6a,8,8-tetramethyl-4a,4b,5,6,6a,6b,9a,10,10a,10b,11,12-dodecahydro-2H-naphtho[2',1':4,5]indeno[1,2-d][1,3]dioxol-2-one",27905,DTXSID6021371,CC1(C)OC2(C(CC3C4CCC5=CC(=O)C=CC5(C)C4(F)C(O)CC23C)O1)C(=O)CO,"InChI=1S/C24H31FO6/c1-20(2)30-19-10-16-15-6-5-13-9-14(27)7-8-21(13,3)23(15,25)17(28)11-22(16,4)24(19,31-20)18(29)12-26/h7-9,15-17,19,26,28H,5-6,10-12H2,1-4H3",YNDXUCZADRHECN-UHFFFAOYSA-N,?,,293.0,100558
100560,76-29-9|10293-06-8,76-29-9|10293-06-8,CC1(C)C2CCC1(C)C(=O)C2Br,"3-Bromo-d-camphor, [1(R)-ENDO]-(+)-3-BROMOCAMPHER",3-Bromo camphor,C10H15BrO,27907|34775,DTXSID10858711|DTXSID2022252,CC1(C)C2CCC1(C)C(=O)C2Br,"InChI=1S/C10H15BrO/c1-9(2)6-4-5-10(9,3)8(12)7(6)11/h6-7H,4-5H2,1-3H3",NJQADTYRAYFBJN-UHFFFAOYSA-N,?,,76.5,100560
100561,76-30-2,76-30-2,OC(O)(C(O)=O)C(O)(O)C(O)=O,TETRAHYDROXYSUCCINIC ACID,Dihydroxytartaric acid,"2,2,3,3-tetrahydroxybutanedioic acid",27908,DTXSID10226895,OC(O)(C(O)=O)C(O)(O)C(O)=O,"InChI=1S/C4H6O8/c5-1(6)3(9,10)4(11,12)2(7)8/h9-12H,(H,5,6)(H,7,8)",XHWHHMNORMIBBB-UHFFFAOYSA-N,?,,114.5,100561
100562,76-37-9,76-37-9,OCC(F)(F)C(F)F,"2,2,3,3-TETRAFLUOROPROPANOL","1-Propanol, 2,2,3,3-tetrafluoro-","2,2,3,3-Tetrafluoropropan-1-ol",27909,DTXSID8058796,OCC(F)(F)C(F)F,"InChI=1S/C3H4F4O/c4-2(5)3(6,7)1-8/h2,8H,1H2",NBUKAOOFKZFCGD-UHFFFAOYSA-N,?,,-15.0,100562
100564,76-39-1,76-39-1,CC(C)(CO)[N+]([O-])=O,2-METHYL-2-NITRO-1-PROPANOL,2-Methyl-2-nitro-1-propanol,2-methyl-2-nitropropan-1-ol,27911,DTXSID8026436,CC(C)(CO)[N+]([O-])=O,"InChI=1S/C4H9NO3/c1-4(2,3-6)5(7)8/h6H,3H2,1-2H3",MVGJRISPEUZYAQ-UHFFFAOYSA-N,?,,89.5,100564
100565,76-41-5,76-41-5,CN1CC[C@@]23[C@H]4Oc5c2c(C[C@@H]1[C@]3(O)CCC4=O)ccc5O,OXYMORPHONE,Oxymorphone,"(5alpha)-3,14-dihydroxy-17-methyl-4,5-epoxymorphinan-6-one",27912,DTXSID5023409,CN1CCC23C4Oc5c2c(CC1C3(O)CCC4=O)ccc5O,"InChI=1S/C17H19NO4/c1-18-7-6-16-13-9-2-3-10(19)14(13)22-15(16)11(20)4-5-17(16,21)12(18)8-9/h2-3,12,15,19,21H,4-8H2,1H3",UQCNKQCJZOAFTQ-UHFFFAOYSA-N,?,,248.5,100565
100566,76-42-6,76-42-6,COc1ccc2C[C@H]3N(C)CC[C@@]45[C@@H](Oc1c42)C(=O)CC[C@]53O,Oxycodone,Oxycodone,"(5alpha)-14-hydroxy-3-methoxy-17-methyl-4,5-epoxymorphinan-6-one",27913,DTXSID5023407,COc1ccc2CC3N(C)CCC45C(Oc1c42)C(=O)CCC53O,"InChI=1S/C18H21NO4/c1-19-8-7-17-14-10-3-4-12(22-2)15(14)23-16(17)11(20)5-6-18(17,21)13(19)9-10/h3-4,13,16,21H,5-9H2,1-2H3",BRUQQQPBMZOVGD-UHFFFAOYSA-N,?,,219.0,100566
100568,76-44-8,76-44-8,ClC1(Cl)C2(Cl)C3C=CC(Cl)C3C1(Cl)C(Cl)=C2Cl,HEPTACHLOR,Heptachlor,"1,4,5,6,7,8,8-heptachloro-3a,4,7,7a-tetrahydro-1H-4,7-methanoindene",27915,DTXSID3020679,ClC1(Cl)C2(Cl)C3C=CC(Cl)C3C1(Cl)C(Cl)=C2Cl,"InChI=1S/C10H5Cl7/c11-4-2-1-3-5(4)9(15)7(13)6(12)8(3,14)10(9,16)17/h1-5H",FRCCEHPWNOQAEU-UHFFFAOYSA-N,?,,95.5,100568
100570,76-47-1,76-47-1,C[C@]12CCC(=O)C=C1CC[C@@H]1[C@@H]2[C@@H](O)C[C@@]2(C)[C@H]1CC[C@]2(O)C(=O)COC(=O)CN(CC)CC,Hydrocortamate,Hydrocortamate,"(11beta)-11,17-dihydroxy-3,20-dioxopregn-4-en-21-yl N,N-diethylglycinate",27916,DTXSID1057824,CC12CCC(=O)C=C1CCC1C2C(O)CC2(C)C1CCC2(O)C(=O)COC(=O)CN(CC)CC,"InChI=1S/C27H41NO6/c1-5-28(6-2)15-23(32)34-16-22(31)27(33)12-10-20-19-8-7-17-13-18(29)9-11-25(17,3)24(19)21(30)14-26(20,27)4/h13,19-21,24,30,33H,5-12,14-16H2,1-4H3",FWFVLWGEFDIZMJ-UHFFFAOYSA-N,?,,162.5,100570
100571,76-49-3,76-49-3,CC1(C)C2C[C@@H](OC(C)=O)C1(C)CC2,BORNYL ACETATE,Bornyl acetate,"(2R)-1,7,7-trimethylbicyclo[2.2.1]hept-2-yl acetate",27917,DTXSID7041675,CC1(C)C2CC(OC(C)=O)C1(C)CC2,"InChI=1S/C12H20O2/c1-8(13)14-10-7-9-5-6-12(10,4)11(9,2)3/h9-10H,5-7H2,1-4H3",KGEKLUUHTZCSIP-UHFFFAOYSA-N,?,,29.0,100571
100573,76-57-3,76-57-3,COc1ccc2C[C@@H]3[C@@H]4C=C[C@H](O)[C@@H]5Oc1c2[C@]45CCN3C,CODEINE,Codeine,"(5alpha,6alpha)-3-methoxy-17-methyl-7,8-didehydro-4,5-epoxymorphinan-6-ol",27919,DTXSID2020341,COc1ccc2CC3C4C=CC(O)C5Oc1c2C45CCN3C,"InChI=1S/C18H21NO3/c1-19-8-7-18-11-4-5-13(20)17(18)22-16-14(21-2)6-3-10(15(16)18)9-12(11)19/h3-6,11-13,17,20H,7-9H2,1-2H3",OROGSEYTTFOCAN-UHFFFAOYSA-N,?,,157.5,100573