ChemID,source_casrn,CAS,SMILES,NAME,preferred_name,iupac,MPID,dsstox_substance_id,Canonical_QSARr,InChI_Code_QSARr,InChI Key_QSARr,Salt_Solvent,Salt_Solvent_ID,MP,ID
101473,99-73-0,99-73-0,O=C(CBr)c1ccc(Br)cc1,"Ethanone, 2-bromo-1-(4-bromophenyl)-","Ethanone, 2-bromo-1-(4-bromophenyl)-",2-bromo-1-(4-bromophenyl)ethanone,28757,DTXSID4059201,O=C(CBr)c1ccc(Br)cc1,"InChI=1S/C8H6Br2O/c9-5-8(11)6-1-3-7(10)4-2-6/h1-4H,5H2",FKJSFKCZZIXQIP-UHFFFAOYSA-N,?,,111.0,101473
101477,99-80-9,99-80-9,CN(N=O)c1ccc(cc1)N=O,"N,4-Dinitrosomethylaniline","N-Methyl-N,4-dinitrosoaniline","N-methyl-N,4-dinitrosoaniline",28761,DTXSID3020839,CN(N=O)c1ccc(cc1)N=O,"InChI=1S/C7H7N3O2/c1-10(9-12)7-4-2-6(8-11)3-5-7/h2-5H,1H3",FMGUJLASXUBMOP-UHFFFAOYSA-N,?,,101.0,101477
101481,99-89-8,99-89-8,CC(C)c1ccc(O)cc1,P-ISOPROPYLPHENOL,4-Isopropylphenol,4-(propan-2-yl)phenol,28765,DTXSID5042299,CC(C)c1ccc(O)cc1,"InChI=1S/C9H12O/c1-7(2)8-3-5-9(10)6-4-8/h3-7,10H,1-2H3",YQUQWHNMBPIWGK-UHFFFAOYSA-N,?,,62.3,101481
101485,99-93-4,99-93-4,CC(=O)c1ccc(O)cc1,P-HYDROXYACETOPHENONE,4-Hydroxyacetophenone,1-(4-hydroxyphenyl)ethanone,28768,DTXSID0029133,CC(=O)c1ccc(O)cc1,"InChI=1S/C8H8O2/c1-6(9)7-2-4-8(10)5-3-7/h2-5,10H,1H3",TXFPEBPIARQUIG-UHFFFAOYSA-N,?,,109.5,101485
101489,99-99-0,99-99-0,Cc1ccc(cc1)[N+]([O-])=O,P-NITROTOLUENE,4-Nitrotoluene,1-methyl-4-nitrobenzene,28772,DTXSID5023792,Cc1ccc(cc1)[N+]([O-])=O,"InChI=1S/C7H7NO2/c1-6-2-4-7(5-3-6)8(9)10/h2-5H,1H3",ZPTVNYMJQHSSEA-UHFFFAOYSA-N,?,,51.6,101489
101493,100-03-8,100-03-8,OS(=O)c1ccc(Cl)cc1,"Benzenesulfinic acid, 4-chloro-",4-Chlorobenzenesulphinic acid,4-chlorobenzenesulfinic acid,28776,DTXSID5024768,OS(=O)c1ccc(Cl)cc1,"InChI=1S/C6H5ClO2S/c7-5-1-3-6(4-2-5)10(8)9/h1-4H,(H,8,9)",AOQYAMDZQAEDLO-UHFFFAOYSA-N,?,,99.0,101493
101497,100-10-7,100-10-7,CN(C)c1ccc(C=O)cc1,"P-FORMYL-N,N-DIMETHYLANILINE",4-Dimethylaminobenzaldehyde,4-(dimethylamino)benzaldehyde,28780,DTXSID5021835,CN(C)c1ccc(C=O)cc1,"InChI=1S/C9H11NO/c1-10(2)9-5-3-8(7-11)4-6-9/h3-7H,1-2H3",BGNGWHSBYQYVRX-UHFFFAOYSA-N,?,,74.5,101497
101501,100-15-2,100-15-2,CNc1ccc(cc1)[N+]([O-])=O,P-NITRO-N-METHYLANILINE,N-Methyl-4-nitroaniline,N-methyl-4-nitroaniline,28784,DTXSID7025635,CNc1ccc(cc1)[N+]([O-])=O,"InChI=1S/C7H8N2O2/c1-8-6-2-4-7(5-3-6)9(10)11/h2-5,8H,1H3",XIFJZJPMHNUGRA-UHFFFAOYSA-N,?,,152.0,101501
101505,100-20-9,100-20-9,O=C(Cl)c1ccc(cc1)C(=O)Cl,"1,4-Benzenedicarbonyl dichloride","1,4-Benzenedicarbonyl dichloride","benzene-1,4-dicarbonyl dichloride",28788,DTXSID7026653,O=C(Cl)c1ccc(cc1)C(=O)Cl,InChI=1S/C8H4Cl2O2/c9-7(11)5-1-2-6(4-3-5)8(10)12/h1-4H,LXEJRKJRKIFVNY-UHFFFAOYSA-N,?,,83.5,101505
101509,100-26-5,100-26-5,OC(=O)c1ccc(c[n]1)C(O)=O,"PYRIDINE-2,5-DICARBOXYLIC ACID","2,5-Pyridinedicarboxylic acid","Pyridine-2,5-dicarboxylic acid",28792,DTXSID3059210,OC(=O)c1ccc(c[n]1)C(O)=O,"InChI=1S/C7H5NO4/c9-6(10)4-1-2-5(7(11)12)8-3-4/h1-3H,(H,9,10)(H,11,12)",LVPMIMZXDYBCDF-UHFFFAOYSA-N,?,,254.0,101509
101513,100-35-6,100-35-6,CCN(CCCl)CC,"N,N-Diethyl-2-chloroethylamine","Ethanamine, 2-chloro-N,N-diethyl-","2-chloro-N,N-diethylethanamine",28796,DTXSID8043868,CCN(CCCl)CC,"InChI=1S/C6H14ClN/c1-3-8(4-2)6-5-7/h3-6H2,1-2H3",YMDNODNLFSHHCV-UHFFFAOYSA-N,?,,210.5,101513
101517,100-42-5,100-42-5,C=Cc1ccccc1,STYRENE,Styrene,ethenylbenzene,28800,DTXSID2021284,C=Cc1ccccc1,"InChI=1S/C8H8/c1-2-8-6-4-3-5-7-8/h2-7H,1H2",PPBRXRYQALVLMV-UHFFFAOYSA-N,?,,-31.0,101517
101521,100-48-1,100-48-1,N#Cc1cc[n]cc1,4-CYANOPYRIDINE,4-Pyridinecarbonitrile,pyridine-4-carbonitrile,28803,DTXSID9041528,N#Cc1cc[n]cc1,InChI=1S/C6H4N2/c7-5-6-1-3-8-4-2-6/h1-4H,GPHQHTOMRSGBNZ-UHFFFAOYSA-N,?,,79.0,101521
101525,100-52-7,100-52-7,O=Cc1ccccc1,BENZALDEHYDE,Benzaldehyde,benzaldehyde,28807,DTXSID8039241,O=Cc1ccccc1,InChI=1S/C7H6O/c8-6-7-4-2-1-3-5-7/h1-6H,HUMNYLRZRPPJDN-UHFFFAOYSA-N,?,,-26.0,101525
101530,100-61-8,100-61-8,CNc1ccccc1,N-METHYLANILINE,N-Methylaniline,N-methylaniline,28811,DTXSID9021841,CNc1ccccc1,"InChI=1S/C7H9N/c1-8-7-5-3-2-4-6-7/h2-6,8H,1H3",AFBPFSWMIHJQDM-UHFFFAOYSA-N,?,,-57.0,101530
101534,100-66-3,100-66-3,COc1ccccc1,ANISOLE,Anisole,methoxybenzene,28815,DTXSID4041608,COc1ccccc1,"InChI=1S/C7H8O/c1-8-7-5-3-2-4-6-7/h2-6H,1H3",RDOXTESZEPMUJZ-UHFFFAOYSA-N,?,,-37.5,101534
101538,100-76-5,100-76-5,C1CN2CCC1CC2,QUINUCLIDINE,Quinuclidine,quinuclidine,28819,DTXSID2057607,C1CN2CCC1CC2,"InChI=1S/C7H13N/c1-4-8-5-2-7(1)3-6-8/h7H,1-6H2",SBYHFKPVCBCYGV-UHFFFAOYSA-N,?,,158.0,101538
101542,100-86-7,100-86-7,CC(C)(O)Cc1ccccc1,"Benzeneethanol, .alpha.,.alpha.-dimethyl-",2-Methyl-1-phenylpropan-2-ol,2-methyl-1-phenylpropan-2-ol,28823,DTXSID1047601,CC(C)(O)Cc1ccccc1,"InChI=1S/C10H14O/c1-10(2,11)8-9-6-4-3-5-7-9/h3-7,11H,8H2,1-2H3",RIWRBSMFKVOJMN-UHFFFAOYSA-N,?,,24.0,101542
101547,101-01-9,101-01-9,c1ccccc1N=C(Nc1ccccc1)Nc1ccccc1,"Guanidine, N,N',N''-triphenyl-","Guanidine, N,N',N''-triphenyl-","1,2,3-tri(phenyl)guanidine",28827,DTXSID2059223,c1ccccc1N=C(Nc1ccccc1)Nc1ccccc1,"InChI=1S/C19H17N3/c1-4-10-16(11-5-1)20-19(21-17-12-6-2-7-13-17)22-18-14-8-3-9-15-18/h1-15H,(H2,20,21,22)",FUPAJKKAHDLPAZ-UHFFFAOYSA-N,?,,146.5,101547
101551,101-16-6,101-16-6,COc1cc(ccc1)Nc1ccccc1,3-METHOXY-N-PHENYLBENZENAMINE,N-Phenyl-m-anisidine,3-methoxy-N-phenylaniline,28831,DTXSID10143614,COc1cc(ccc1)Nc1ccccc1,"InChI=1S/C13H13NO/c1-15-13-9-5-8-12(10-13)14-11-6-3-2-4-7-11/h2-10,14H,1H3",MKASXAGBWHIGCF-UHFFFAOYSA-N,?,,73.0,101551
101555,101-25-7,101-25-7,O=NN1CN2CN(CN(C2)N=O)C1,Dinitrosopentamethylenetetramine,"N,N-Dinitrosopentamethylenetetramine","3,7-dinitroso-1,3,5,7-tetraazabicyclo[3.3.1]nonane",28835,DTXSID5020526,O=NN1CN2CN(CN(C2)N=O)C1,InChI=1S/C5H10N6O2/c12-6-10-2-8-1-9(4-10)5-11(3-8)7-13/h1-5H2,MWRWFPQBGSZWNV-UHFFFAOYSA-N,?,,204.5,101555
101560,101-37-1,101-37-1,C=CCOc1[n]c([n]c([n]1)OCC=C)OCC=C,"1,3,5-Triazine, 2,4,6-tris(2-propenyloxy)-","2,4,6-Tris(allyloxy)-1,3,5-triazine","2,4,6-tris(prop-2-en-1-yloxy)-1,3,5-triazine",28840,DTXSID8037754,C=CCOc1[n]c([n]c([n]1)OCC=C)OCC=C,"InChI=1S/C12H15N3O3/c1-4-7-16-10-13-11(17-8-5-2)15-12(14-10)18-9-6-3/h4-6H,1-3,7-9H2",BJELTSYBAHKXRW-UHFFFAOYSA-N,?,,27.0,101560
101564,101-54-2,101-54-2,Nc1ccc(cc1)Nc1ccccc1,4-AMINODIPHENYLAMINE,"N-Phenyl-1,4-benzenediamine","N-phenylbenzene-1,4-diamine",28844,DTXSID7025895,Nc1ccc(cc1)Nc1ccccc1,"InChI=1S/C12H12N2/c13-10-6-8-12(9-7-10)14-11-4-2-1-3-5-11/h1-9,14H,13H2",ATGUVEKSASEFFO-UHFFFAOYSA-N,?,,66.0,101564
101568,101-60-0,101-60-0,c1c2ccc(cc3C=Cc(cc4ccc(cc5C=Cc1[n]5)[nH]4)[n]3)[nH]2,"21H,23H-Porphine","21H,23H-Porphine",,28848,DTXSID6059235,c1c2ccc(cc3C=Cc(cc4ccc(cc5C=Cc1[n]5)[nH]4)[n]3)[nH]2,"InChI=1S/C20H14N4/c1-2-14-10-16-5-6-18(23-16)12-20-8-7-19(24-20)11-17-4-3-15(22-17)9-13(1)21-14/h1-12,21,24H/b13-9-,14-10-,15-9-,16-10-,17-11-,18-12-,19-11-,20-12-",RKCAIXNGYQCCAL-CEVVSZFKSA-N,?,,360.0,101568
101572,101-68-8,101-68-8,O=C=Nc1ccc(Cc2ccc(cc2)N=C=O)cc1,DIPHENYL METHANE DIISOCYANATE,"4,4'-Diphenylmethane diisocyanate","1,1'-methanediylbis(4-isocyanatobenzene)",28852,DTXSID7025180,O=C=Nc1ccc(Cc2ccc(cc2)N=C=O)cc1,"InChI=1S/C15H10N2O2/c18-10-16-14-5-1-12(2-6-14)9-13-3-7-15(8-4-13)17-11-19/h1-8H,9H2",UPMLOUAZCHDJJD-UHFFFAOYSA-N,?,,38.0,101572
101576,101-75-7,101-75-7,c1cc(ccc1N=Nc1ccccc1)Nc1ccccc1,"Benzenamine, N-phenyl-4-(phenylazo)-","Benzenamine, N-phenyl-4-(phenylazo)-",N-phenyl-4-phenyldiazenylaniline,28856,DTXSID1059238,c1cc(ccc1N=Nc1ccccc1)Nc1ccccc1,"InChI=1S/C18H15N3/c1-3-7-15(8-4-1)19-16-11-13-18(14-12-16)21-20-17-9-5-2-6-10-17/h1-14,19H/b21-20+",VXLFYNFOITWQPM-QZQOTICOSA-N,?,,90.0,101576
101580,101-82-6,101-82-6,C(c1cccc[n]1)c1ccccc1,2-BENZYLPYRIDINE,"Pyridine, 2-(phenylmethyl)-",2-(Phenylmethyl)pyridine,28860,DTXSID5059240,C(c1cccc[n]1)c1ccccc1,"InChI=1S/C12H11N/c1-2-6-11(7-3-1)10-12-8-4-5-9-13-12/h1-9H,10H2",PCFUWBOSXMKGIP-UHFFFAOYSA-N,?,,12.5,101580
101584,101-90-6,101-90-6,C(Oc1cc(ccc1)OCC1CO1)C1CO1,"Oxirane, 2,2'- 1,3-phenylenebis(oxymethylene) bi",Diglycidyl resorcinol ether,"2,2'-[benzene-1,3-diylbis(oxymethanediyl)]dioxirane",28864,DTXSID2020470,C(Oc1cc(ccc1)OCC1CO1)C1CO1,"InChI=1S/C12H14O4/c1-2-9(13-5-11-7-15-11)4-10(3-1)14-6-12-8-16-12/h1-4,11-12H,5-8H2",WPYCRFCQABTEKC-UHFFFAOYSA-N,?,,42.5,101584
101588,101-97-3,101-97-3,CCOC(=O)Cc1ccccc1,"BENZENEACETIC ACID, ETHYL ESTER",Ethyl phenylacetate,ethyl phenylacetate,28868,DTXSID6044353,CCOC(=O)Cc1ccccc1,"InChI=1S/C10H12O2/c1-2-12-10(11)8-9-6-4-3-5-7-9/h3-7H,2,8H2,1H3",DULCUDSUACXJJC-UHFFFAOYSA-N,?,,-29.4,101588
101592,102-04-5,102-04-5,O=C(Cc1ccccc1)Cc1ccccc1,DIBENZYL KETONE,"2-Propanone, 1,3-diphenyl-","1,3-di(phenyl)propan-2-one",28872,DTXSID5059244,O=C(Cc1ccccc1)Cc1ccccc1,"InChI=1S/C15H14O/c16-15(11-13-7-3-1-4-8-13)12-14-9-5-2-6-10-14/h1-10H,11-12H2",YFKBXYGUSOXJGS-UHFFFAOYSA-N,?,,35.0,101592
101596,102-09-0,102-09-0,O=C(Oc1ccccc1)Oc1ccccc1,"CARBONIC ACID, DIPHENYL ESTER",Diphenylcarbonate,diphenyl carbonate,28876,DTXSID3020540,O=C(Oc1ccccc1)Oc1ccccc1,InChI=1S/C13H10O3/c14-13(15-11-7-3-1-4-8-11)16-12-9-5-2-6-10-12/h1-10H,ROORDVPLFPIABK-UHFFFAOYSA-N,?,,83.0,101596
101600,102-25-0,25340-18-5,CCc1cc(CC)cc(CC)c1,"1,3,5-TRIETHYLBENZENE","Benzene, triethyl-","1,3,5-triethylbenzene",28880,DTXSID9027867,CCc1cc(CC)cc(CC)c1,"InChI=1S/C12H18/c1-4-10-7-11(5-2)9-12(6-3)8-10/h7-9H,4-6H2,1-3H3",WJYMPXJVHNDZHD-UHFFFAOYSA-N,?,,-66.5,101600
101604,102-50-1,102-50-1,Cc1cc(ccc1N)OC,"BENZENAMINE, 4-METHOXY-2-METHYL-",4-Methoxy-2-methylaniline,4-methoxy-2-methylaniline,28884,DTXSID2020349,Cc1cc(ccc1N)OC,"InChI=1S/C8H11NO/c1-6-5-7(10-2)3-4-8(6)9/h3-5H,9H2,1-2H3",CDGNLUSBENXDGG-UHFFFAOYSA-N,?,,29.5,101604
101610,102-71-6,102-71-6,OCCN(CCO)CCO,TRIETHANOLAMINE,Triethanolamine,"2,2',2''-nitrilotriethanol",28887,DTXSID9021392,OCCN(CCO)CCO,"InChI=1S/C6H15NO3/c8-4-1-7(2-5-9)3-6-10/h8-10H,1-6H2",GSEJCLTVZPLZKY-UHFFFAOYSA-N,?,,20.5,101610
101614,102-82-9,102-82-9,CCCCN(CCCC)CCCC,TRI N-BUTYLAMINE,Tributylamine,"N,N-dibutylbutan-1-amine",28890,DTXSID4026183,CCCCN(CCCC)CCCC,"InChI=1S/C12H27N/c1-4-7-10-13(11-8-5-2)12-9-6-3/h4-12H2,1-3H3",IMFACGCPASFAPR-UHFFFAOYSA-N,?,,-70.0,101614
101619,103-02-6,103-02-6,CC(C)=NNc1ccccc1,"2-Propanone, phenylhydrazone","2-Propanone, phenylhydrazone",N-(propan-2-ylideneamino)aniline,28894,DTXSID3059266,CC(C)=NNc1ccccc1,"InChI=1S/C9H12N2/c1-8(2)10-11-9-6-4-3-5-7-9/h3-7,11H,1-2H3",JQLKSEQEILIJEG-UHFFFAOYSA-N,?,,42.0,101619
101623,103-09-3,103-09-3,CCCCC(COC(C)=O)CC,2-ETHYLHEXYLACETATE,2-Ethylhexyl acetate,2-ethylhexyl acetate,28898,DTXSID8026694,CCCCC(COC(C)=O)CC,"InChI=1S/C10H20O2/c1-4-6-7-10(5-2)8-12-9(3)11/h10H,4-8H2,1-3H3",WOYWLLHHWAMFCB-UHFFFAOYSA-N,?,,-80.0,101623
101627,103-16-2,103-16-2,Oc1ccc(cc1)OCc1ccccc1,P-(BENZYLOXY) PHENOL,4-(Benzyloxyl)phenol,4-(benzyloxy)phenol,28902,DTXSID2020717,Oc1ccc(cc1)OCc1ccccc1,"InChI=1S/C13H12O2/c14-12-6-8-13(9-7-12)15-10-11-4-2-1-3-5-11/h1-9,14H,10H2",VYQNWZOUAUKGHI-UHFFFAOYSA-N,?,,122.0,101627
101631,103-24-2,103-24-2,CCCCC(COC(=O)CCCCCCCC(=O)OCC(CCCC)CC)CC,"Nonanedioic acid, bis(2-ethylhexyl) ester",Bis(2-ethylhexyl) nonanedioate,bis(2-ethylhexyl) nonanedioate,28906,DTXSID3026697,CCCCC(COC(=O)CCCCCCCC(=O)OCC(CCCC)CC)CC,"InChI=1S/C25H48O4/c1-5-9-16-22(7-3)20-28-24(26)18-14-12-11-13-15-19-25(27)29-21-23(8-4)17-10-6-2/h22-23H,5-21H2,1-4H3",ZDWGXBPVPXVXMQ-UHFFFAOYSA-N,?,,-78.0,101631
101636,103-33-3|17082-12-1,103-33-3,c1ccccc1N=Nc1ccccc1,"AZOBENZENE, DIAZENE, DIPHENYL-, (E)-",Azobenzene,diphenyldiazene,28910|35029,DTXSID8020123,c1ccccc1N=Nc1ccccc1,InChI=1S/C12H10N2/c1-3-7-11(8-4-1)13-14-12-9-5-2-6-10-12/h1-10H/b14-13+,DMLAVOWQYNRWNQ-BUHFOSPRSA-N,?,,68.25,101636
101640,103-43-5,103-43-5,O=C(CCC(=O)OCc1ccccc1)OCc1ccccc1,DIBENZYL SUCCINATE,"Butanedioic acid, bis(phenylmethyl) ester",bis(phenylmethyl) butanedioate,28914,DTXSID9074434,O=C(CCC(=O)OCc1ccccc1)OCc1ccccc1,"InChI=1S/C18H18O4/c19-17(21-13-15-7-3-1-4-8-15)11-12-18(20)22-14-16-9-5-2-6-10-16/h1-10H,11-14H2",ODBOBZHTGBGYCK-UHFFFAOYSA-N,?,,49.5,101640
101644,103-47-9,103-47-9,OS(=O)(=O)CCNC1CCCCC1,CHES,"Ethanesulfonic acid, 2-(cyclohexylamino)-",,28918,DTXSID7059274,OS(=O)(=O)CCNC1CCCCC1,"InChI=1S/C8H17NO3S/c10-13(11,12)7-6-9-8-4-2-1-3-5-8/h8-9H,1-7H2,(H,10,11,12)",MKWKNSIESPFAQN-UHFFFAOYSA-N,?,,320.0,101644
101648,103-64-0,1335-06-4,BrC=Cc1ccccc1,BETA-BROMOSTYRENE,"Benzene, bromoethenyl-",?,28922,DTXSID8061680,BrC=Cc1ccccc1,InChI=1S/C8H7Br/c9-7-6-8-4-2-1-3-5-8/h1-7H/b7-6-,YMOONIIMQBGTDU-SREVYHEPSA-N,?,,7.0,101648
101653,103-73-1,103-73-1,CCOc1ccccc1,ETHOXYBENZENE,"Benzene, ethoxy-",Ethoxybenzene,28926,DTXSID7059278,CCOc1ccccc1,"InChI=1S/C8H10O/c1-2-9-8-6-4-3-5-7-8/h3-7H,2H2,1H3",DLRJIFUOBPOJNS-UHFFFAOYSA-N,?,,-29.5,101653
101657,103-82-2,103-82-2,OC(=O)Cc1ccccc1,PHENYLACETIC ACID,Phenylacetic acid,phenylacetic acid,28930,DTXSID2021656,OC(=O)Cc1ccccc1,"InChI=1S/C8H8O2/c9-8(10)6-7-4-2-1-3-5-7/h1-5H,6H2,(H,9,10)",WLJVXDMOQOGPHL-UHFFFAOYSA-N,?,,76.5,101657
101661,103-88-8,103-88-8,CC(=O)Nc1ccc(Br)cc1,4-BROMOACETANILIDE,"Acetamide, N-(4-bromophenyl)-",N-(4-bromophenyl)acetamide,28934,DTXSID6059283,CC(=O)Nc1ccc(Br)cc1,"InChI=1S/C8H8BrNO/c1-6(11)10-8-4-2-7(9)3-5-8/h2-5H,1H3,(H,10,11)",MSLICLMCQYQNPK-UHFFFAOYSA-N,?,,168.0,101661
101665,103-99-1,103-99-1,CCCCCCCCCCCCCCCCCC(=O)Nc1ccc(O)cc1,N-STEAROYL-P-AMINOPHENOL,N-(4-Hydroxyphenyl)stearamide,N-(4-hydroxyphenyl)octadecanamide,28938,DTXSID6059287,CCCCCCCCCCCCCCCCCC(=O)Nc1ccc(O)cc1,"InChI=1S/C24H41NO2/c1-2-3-4-5-6-7-8-9-10-11-12-13-14-15-16-17-24(27)25-22-18-20-23(26)21-19-22/h18-21,26H,2-17H2,1H3,(H,25,27)",YASWBJXTHOXPGK-UHFFFAOYSA-N,?,,133.8,101665
101669,104-07-4,104-07-4,CCCCCCCCCCCCCCCCCC(=O)OC1CCCCC1,"Octadecanoic acid, cyclohexyl ester",Cyclohexyl stearate,cyclohexyl octadecanoate,28942,DTXSID30146203,CCCCCCCCCCCCCCCCCC(=O)OC1CCCCC1,"InChI=1S/C24H46O2/c1-2-3-4-5-6-7-8-9-10-11-12-13-14-15-19-22-24(25)26-23-20-17-16-18-21-23/h23H,2-22H2,1H3",NRVKWKPZZQHRSP-UHFFFAOYSA-N,?,,44.0,101669
101674,104-20-1,104-20-1,CC(=O)CCc1ccc(cc1)OC,"2-Butanone, 4-(4-methoxyphenyl)-",4-(4-Methoxyphenyl)-2-butanone,4-(4-methoxyphenyl)butan-2-one,28946,DTXSID5047166,CC(=O)CCc1ccc(cc1)OC,"InChI=1S/C11H14O2/c1-9(12)3-4-10-5-7-11(13-2)8-6-10/h5-8H,3-4H2,1-2H3",PCBSXBYCASFXTM-UHFFFAOYSA-N,?,,8.0,101674
101678,104-29-0,104-29-0,OCC(O)COc1ccc(Cl)cc1,Chlorphenesin,Chlorphenesin,C9H11ClO3,28950,DTXSID0049028,OCC(O)COc1ccc(Cl)cc1,"InChI=1S/C9H11ClO3/c10-7-1-3-9(4-2-7)13-6-8(12)5-11/h1-4,8,11-12H,5-6H2",MXOAEAUPQDYUQM-UHFFFAOYSA-N,?,,78.0,101678
101682,104-46-1|4180-23-8,104-46-1|4180-23-8,CC=Cc1ccc(cc1)OC,"ANETHOLE, ANETHOLE (TRANS)",Anethole,1-methoxy-4-(prop-1-en-1-yl)benzene,28954|34177,DTXSID4020086|DTXSID9020087,CC=Cc1ccc(cc1)OC,"InChI=1S/C10H12O/c1-3-4-9-5-7-10(11-2)8-6-9/h3-8H,1-2H3/b4-3+",RUVINXPYWBROJD-ONEGZZNKSA-N,?,,21.325,101682
101686,104-54-1,104-54-1,OCC=Cc1ccccc1,CINNAMYL ALCOHOL,3-Phenyl-2-propen-1-ol,3-phenylprop-2-en-1-ol,28957,DTXSID9041491,OCC=Cc1ccccc1,"InChI=1S/C9H10O/c10-8-4-7-9-5-2-1-3-6-9/h1-7,10H,8H2/b7-4+",OOCCDEMITAIZTP-QPJJXVBHSA-N,?,,33.0,101686
101691,104-72-3,104-72-3,CCCCCCCCCCc1ccccc1,1-PHENYLDECANE,Decylbenzene,decylbenzene,28961,DTXSID5051529,CCCCCCCCCCc1ccccc1,"InChI=1S/C16H26/c1-2-3-4-5-6-7-8-10-13-16-14-11-9-12-15-16/h9,11-12,14-15H,2-8,10,13H2,1H3",UZILCZKGXMQEQR-UHFFFAOYSA-N,?,,-14.4,101691
101695,104-83-6,104-83-6,Clc1ccc(CCl)cc1,"BENZENE, 1-CHLORO-4-(CHLOROMETHYL)-",4-Chlorobenzyl chloride,1-chloro-4-(chloromethyl)benzene,28965,DTXSID4051530,Clc1ccc(CCl)cc1,"InChI=1S/C7H6Cl2/c8-5-6-1-3-7(9)4-2-6/h1-4H,5H2",JQZAEUFPPSRDOP-UHFFFAOYSA-N,?,,31.0,101695
101699,104-88-1,104-88-1,O=Cc1ccc(Cl)cc1,4-CHLOROBENZALDEHYDE,4-Chlorobenzaldehyde,4-chlorobenzaldehyde,28969,DTXSID2021860,O=Cc1ccc(Cl)cc1,InChI=1S/C7H5ClO/c8-7-3-1-6(5-9)2-4-7/h1-5H,AVPYQKSLYISFPO-UHFFFAOYSA-N,?,,47.5,101699
101703,104-94-9,104-94-9,COc1ccc(N)cc1,4-METHOXYANILINE,4-Methoxyaniline,4-methoxyaniline,28973,DTXSID7024532,COc1ccc(N)cc1,"InChI=1S/C7H9NO/c1-9-7-4-2-6(8)3-5-7/h2-5H,8H2,1H3",BHAAPTBBJKJZER-UHFFFAOYSA-N,?,,57.2,101703
101707,105-06-6,105-06-6,C=Cc1ccc(cc1)C=C,"Benzene, 1,4-diethenyl-","1,4-Divinylbenzene","1,4-diethenylbenzene",28977,DTXSID2033863,C=Cc1ccc(cc1)C=C,"InChI=1S/C10H10/c1-3-9-5-7-10(4-2)8-6-9/h3-8H,1-2H2",WEERVPDNCOGWJF-UHFFFAOYSA-N,?,,31.0,101707
101711,105-31-7,105-31-7,CCCC(O)C#C,1-HEXYN-3-OL,Hex-1-yn-3-ol,hex-1-yn-3-ol,28981,DTXSID4051536,CCCC(O)C#C,"InChI=1S/C6H10O/c1-3-5-6(7)4-2/h2,6-7H,3,5H2,1H3",LTFTWJYRQNTCHI-UHFFFAOYSA-N,?,,-80.0,101711
101715,105-39-5,105-39-5,CCOC(=O)CCl,ETHYL CHLOROACETATE,Ethyl chloroacetate,ethyl chloroacetate,28985,DTXSID4026715,CCOC(=O)CCl,"InChI=1S/C4H7ClO2/c1-2-7-4(6)3-5/h2-3H2,1H3",VEUUMBGHMNQHGO-UHFFFAOYSA-N,?,,-21.0,101715
101719,105-54-4,105-54-4,CCOC(=O)CCC,ETHYLBUTYRATE,Ethyl butyrate,ethyl butanoate,28988,DTXSID6040111,CCOC(=O)CCC,"InChI=1S/C6H12O2/c1-3-5-6(7)8-4-2/h3-5H2,1-2H3",OBNCKNCVKJNDBV-UHFFFAOYSA-N,?,,-98.0,101719
101723,105-58-8,105-58-8,CCOC(=O)OCC,DIETHYL CARBONATE,Diethyl carbonate,diethyl carbonate,28992,DTXSID3025041,CCOC(=O)OCC,"InChI=1S/C5H10O3/c1-3-7-5(6)8-4-2/h3-4H2,1-2H3",OIFBSDVPJOWBCH-UHFFFAOYSA-N,?,,-43.0,101723
101728,105-66-8,105-66-8,CCCOC(=O)CCC,N-PROPYLBUTYRATE,"Butanoic acid, propyl ester",Propyl butanoate,28996,DTXSID6059318,CCCOC(=O)CCC,"InChI=1S/C7H14O2/c1-3-5-7(8)9-6-4-2/h3-6H2,1-2H3",HUAZGNHGCJGYNP-UHFFFAOYSA-N,?,,-95.2,101728
101733,105-81-7,105-81-7,C=CCN=C(S)NCCO,"Thiourea, N-(2-hydroxyethyl)-N'-2-propenyl-",N-(2-Hydroxyethyl)-N'-allylthiourea,,29000,DTXSID0059324,C=CCN=C(S)NCCO,"InChI=1S/C6H12N2OS/c1-2-3-7-6(10)8-4-5-9/h2,9H,1,3-5H2,(H2,7,8,10)",VUVPNTYTOUGMDG-UHFFFAOYSA-N,?,,78.0,101733
101737,106-07-0,106-07-0,CCCCCCCCCCCCCCCCCC(=O)OCCOCCOCCOCCO,"Octadecanoic acid, 2- 2- 2-(2-hydroxyethoxy)etho","Octadecanoic acid, 2-[2-[2-(2-hydroxyethoxy)ethoxy]ethoxy]ethyl ester",2-[2-[2-(2-hydroxyethoxy)ethoxy]ethoxy]ethyl octadecanoate,29004,DTXSID9059331,CCCCCCCCCCCCCCCCCC(=O)OCCOCCOCCOCCO,"InChI=1S/C26H52O6/c1-2-3-4-5-6-7-8-9-10-11-12-13-14-15-16-17-26(28)32-25-24-31-23-22-30-21-20-29-19-18-27/h27H,2-25H2,1H3",SBKDIDITONHJHI-UHFFFAOYSA-N,?,,40.0,101737
101741,106-30-9,106-30-9,CCCCCCC(=O)OCC,ETHYL HEPTANOATE,Ethyl heptanoate,ethyl heptanoate,29008,DTXSID1040112,CCCCCCC(=O)OCC,"InChI=1S/C9H18O2/c1-3-5-6-7-8-9(10)11-4-2/h3-8H2,1-2H3",TVQGDYNRXLTQAP-UHFFFAOYSA-N,?,,-66.1,101741
101746,106-35-4,106-35-4,CCCCC(=O)CC,3-HEPTANONE,3-Heptanone,heptan-3-one,29012,DTXSID2047438,CCCCC(=O)CC,"InChI=1S/C7H14O/c1-3-5-6-7(8)4-2/h3-6H2,1-2H3",NGAZZOYFWWSOGK-UHFFFAOYSA-N,?,,-39.0,101746
101750,106-39-8,106-39-8,Clc1ccc(Br)cc1,P-BROMOCHLOROBENZENE,p-Bromoclorobenzene,1-Bromo-4-chlorobenzene,29016,DTXSID4059338,Clc1ccc(Br)cc1,InChI=1S/C6H4BrCl/c7-5-1-3-6(8)4-2-5/h1-4H,NHDODQWIKUYWMW-UHFFFAOYSA-N,?,,68.0,101750
101754,106-43-4,106-43-4,Cc1ccc(Cl)cc1,P-CHLOROTOLUENE,4-Chlorotoluene,1-chloro-4-methylbenzene,29020,DTXSID8024814,Cc1ccc(Cl)cc1,"InChI=1S/C7H7Cl/c1-6-2-4-7(8)5-3-6/h2-5H,1H3",NPDACUSDTOMAMK-UHFFFAOYSA-N,?,,7.5,101754
101758,106-47-8,106-47-8,Nc1ccc(Cl)cc1,4-CHLOROANILINE,4-Chloroaniline,4-chloroaniline,29024,DTXSID9020295,Nc1ccc(Cl)cc1,"InChI=1S/C6H6ClN/c7-5-1-3-6(8)4-2-5/h1-4H,8H2",QSNSCYSYFYORTR-UHFFFAOYSA-N,?,,72.5,101758
101762,106-51-4,106-51-4,O=C1C=CC(=O)C=C1,"2,5-CYCLOHEXADIENE-1,4-DIONE","1,4-Benzoquinone","cyclohexa-2,5-diene-1,4-dione",29028,DTXSID6020145,O=C1C=CC(=O)C=C1,InChI=1S/C6H4O2/c7-5-1-2-6(8)4-3-5/h1-4H,AZQWKYJCGOJGHM-UHFFFAOYSA-N,?,,115.7,101762
101766,106-55-8|2815-34-1|6284-84-0,NOCAS_861721|2815-34-1|6284-84-0,CC1CNC(C)CN1,"2,5-DIMETHYLPIPERAZINE, trans-2,5-Dimethylpiperazine, PIPERAZINE, 2,5-DIMETHYL-, CIS-",,,29032|33815|34549,DTXSID70861721|DTXSID90878851|DTXSID30878850,CC1CNC(C)CN1,"InChI=1S/C6H14N2/c1-5-3-8-6(2)4-7-5/h5-8H,3-4H2,1-2H3",NSMWYRLQHIXVAP-UHFFFAOYSA-N,?,,116.166666666666,101766
101770,106-73-0,106-73-0,CCCCCCC(=O)OC,METHYL HEPTANOATE,Methyl heptanoate,METHYL HEPTANOATE,29036,DTXSID3059345,CCCCCCC(=O)OC,"InChI=1S/C8H16O2/c1-3-4-5-6-7-8(9)10-2/h3-7H2,1-2H3",XNCNNDVCAUWAIT-UHFFFAOYSA-N,?,,-56.0,101770
101774,106-89-8|13403-37-7,106-89-8,ClCC1CO1,"1-CHLORO-2,3-EPOXYPROPANE, (CHLOROMETHYL)OXIRANE",Epichlorohydrin,C3H5ClO,29039|34834,DTXSID1020566,ClCC1CO1,"InChI=1S/C3H5ClO/c4-1-3-2-5-3/h3H,1-2H2",BRLQWZUYTZBJKN-UHFFFAOYSA-N,?,,-41.6,101774