ChemID,source_casrn,CAS,SMILES,NAME,preferred_name,iupac,MPID,dsstox_substance_id,Canonical_QSARr,InChI_Code_QSARr,InChI Key_QSARr,Salt_Solvent,BP,ID
101785,401-56-9,NOCAS_870525,CCOC(=O)C(F)Cl,"Acetic acid, chlorofluoro-, ethyl ester",,,20831,DTXSID20870525,CCOC(=O)C(F)Cl,"InChI=1S/C4H6ClFO2/c1-2-8-4(7)3(5)6/h3H,2H2,1H3",WUHVJSONZHSDFC-UHFFFAOYSA-N,?,129.0,101785
101787,401-80-9,401-80-9,Fc1cccc(c1)C(F)(F)F,Trifluoromethyl-3-fluorobenzene,"alpha,alpha,alpha,3-Tetrafluorotoluene",1-Fluoro-3-(trifluoromethyl)benzene,20833,DTXSID20193140,Fc1cccc(c1)C(F)(F)F,"InChI=1S/C7H4F4/c8-6-3-1-2-5(4-6)7(9,10)11/h1-4H",GBOWGKOVMBDPJF-UHFFFAOYSA-N,?,101.5,101787
101788,402-31-3,402-31-3,FC(F)(F)c1cc(ccc1)C(F)(F)F,"BENZENE, 1,3-BIS(TRIFLUOROMETHYL)-","Benzene, 1,3-bis(trifluoromethyl)-","1,3-BIS(TRIFLUOROMETHYL)BENZENE",20834,DTXSID1059949,FC(F)(F)c1cc(ccc1)C(F)(F)F,"InChI=1S/C8H4F6/c9-7(10,11)5-2-1-3-6(4-5)8(12,13)14/h1-4H",SJBBXFLOLUTGCW-UHFFFAOYSA-N,?,116.0,101788
101789,402-43-7,402-43-7,FC(F)(F)c1ccc(Br)cc1,"Benzene, 1-bromo-4-(trifluoromethyl)-","Benzene, 1-bromo-4-(trifluoromethyl)-",1-bromo-4-(trifluoromethyl)benzene,20835,DTXSID0059950,FC(F)(F)c1ccc(Br)cc1,"InChI=1S/C7H4BrF3/c8-6-3-1-5(2-4-6)7(9,10)11/h1-4H",XLQSXGGDTHANLN-UHFFFAOYSA-N,?,160.0,101789
101791,402-67-5,402-67-5,[O-][N+](=O)c1cccc(F)c1,3-FLUORONITROBENZENE,1-Fluoro-3-nitrobenzene,1-Fluoro-3-nitrobenzene,20837,DTXSID20193201,[O-][N+](=O)c1cccc(F)c1,InChI=1S/C6H4FNO2/c7-5-2-1-3-6(4-5)8(9)10/h1-4H,WMASLRCNNKMRFP-UHFFFAOYSA-N,?,199.0,101791
101792,403-42-9,403-42-9,CC(=O)c1ccc(F)cc1,4-FLUOROACETOPHENONE,4'-Fluoroacetophenone,1-(4-fluorophenyl)ethanone,20838,DTXSID0059952,CC(=O)c1ccc(F)cc1,"InChI=1S/C8H7FO/c1-6(10)7-2-4-8(9)5-3-7/h2-5H,1H3",ZDPAWHACYDRYIW-UHFFFAOYSA-N,?,196.0,101792
101793,403-54-3,403-54-3,N#Cc1cccc(F)c1,"BENZONITRILE, 3-FLUORO-","Benzonitrile, 3-fluoro-",3-Fluorobenzonitrile,20839,DTXSID0059954,N#Cc1cccc(F)c1,InChI=1S/C7H4FN/c8-7-3-1-2-6(4-7)5-9/h1-4H,JZTPKAROPNTQQV-UHFFFAOYSA-N,?,182.5,101793
101795,406-58-6,406-58-6,CC(F)(F)CC(F)(F)F,HFC-365mfc,HFC-365mfc,"1,1,1,3,3-pentafluorobutane",20841,DTXSID5073901,CC(F)(F)CC(F)(F)F,"InChI=1S/C4H5F5/c1-3(5,6)2-4(7,8)9/h2H2,1H3",WZLFPVPRZGTCKP-UHFFFAOYSA-N,?,40.0,101795
101796,406-78-0,406-78-0,FC(F)(F)COC(F)(F)C(F)F,CF3-CH2-O-CF2-CF2H,HFE-347pcf2,"1,1,2,2-Tetrafluoro-1-(2,2,2-trifluoroethoxy)ethane",20842,DTXSID8074786,FC(F)(F)COC(F)(F)C(F)F,"InChI=1S/C4H3F7O/c5-2(6)4(10,11)12-1-3(7,8)9/h2H,1H2",CWIFAKBLLXGZIC-UHFFFAOYSA-N,?,56.2,101796
101797,406-90-6,406-90-6,C=COCC(F)(F)F,FLUROXENE,"Ethene, (2,2,2-trifluoroethoxy)-","2,2,2-trifluoroethoxyethene",20843,DTXSID5059957,C=COCC(F)(F)F,"InChI=1S/C4H5F3O/c1-2-8-3-4(5,6)7/h2H,1,3H2",DLEGDLSLRSOURQ-UHFFFAOYSA-N,?,42.5,101797
101799,407-38-5,407-38-5,O=C(OCC(F)(F)F)C(F)(F)F,"ACETIC ACID,TRIFLUORO, 2,2,2TRIFLUOROETHYL ESTER","2,2,2-Trifluoroethyl trifluoroacetate","2,2,2-trifluoroethyl 2,2,2-trifluoroacetate",20845,DTXSID30193676,O=C(OCC(F)(F)F)C(F)(F)F,"InChI=1S/C4H2F6O2/c5-3(6,7)1-12-2(11)4(8,9)10/h1H2",ZKUJOCJJXCPCFS-UHFFFAOYSA-N,?,55.0,101799
101800,407-98-7,NOCAS_870527,FCCCCCCl,1-Chloro-5-fluoropentane,,,20846,DTXSID40870527,FCCCCCCl,InChI=1S/C5H10ClF/c6-4-2-1-3-5-7/h1-5H2,HMHFNUWREZQHGJ-UHFFFAOYSA-N,?,143.2,101800
101801,420-12-2,420-12-2,C1CS1,ETHYLENE SULFIDE,Ethylene sulfide,thiirane,20847,DTXSID3049411,C1CS1,InChI=1S/C2H4S/c1-2-3-1/h1-2H2,VOVUARRWDCVURC-UHFFFAOYSA-N,?,55.5,101801
101803,420-26-8,420-26-8,CC(C)F,2-Fluoropropane,"Propane, 2-fluoro-",2-FLUOROPROPANE,20849,DTXSID0073902,CC(C)F,"InChI=1S/C3H7F/c1-3(2)4/h3H,1-2H3",PRNZBCYBKGCOFI-UHFFFAOYSA-N,?,-10.0,101803
101804,420-45-1,420-45-1,CC(C)(F)F,"PROPANE, 2,2-DIFLUORO-",,,20850,DTXSID60870529,CC(C)(F)F,"InChI=1S/C3H6F2/c1-3(2,4)5/h1-2H3",YZXSQDNPKVBDOG-UHFFFAOYSA-N,?,-0.4,101804
101805,420-46-2,420-46-2,CC(F)(F)F,"1,1,1-TRIFLUOROETHANE","1,1,1-trifluoroethane","1,1,1-trifluoroethane",20851,DTXSID9042047,CC(F)(F)F,"InChI=1S/C2H3F3/c1-2(3,4)5/h1H3",UJPMYEOUBPIPHQ-UHFFFAOYSA-N,?,-47.5,101805
101807,420-90-6,420-90-6,C=CC(F)(F)Br,"1-PROPENE, 3-BROMO-3,3-DIFLUORO-","3-bromo-3,3-difluoroprop-1-ene",C3H3BrF2,20853,DTXSID60339267,C=CC(F)(F)Br,"InChI=1S/C3H3BrF2/c1-2-3(4,5)6/h2H,1H2",GDDNTTHUKVNJRA-UHFFFAOYSA-N,?,42.0,101807
101808,420-97-3,NOCAS_870530,CC(F)(Cl)CCl,"PROPANE, 1,2-DICHLORO-2-FLUORO-",,,20854,DTXSID70870530,CC(F)(Cl)CCl,"InChI=1S/C3H5Cl2F/c1-3(5,6)2-4/h2H2,1H3",OTKOPXLUNRNYCD-UHFFFAOYSA-N,?,88.6,101808
101809,420-99-5,420-99-5,CC(F)(F)CCl,"PROPANE, 1-CHLORO-2,2-DIFLUORO-","Propane, 1-chloro-2,2-difluoro-","1-chloro-2,2-difluoropropane",20855,DTXSID40194811,CC(F)(F)CCl,"InChI=1S/C3H5ClF2/c1-3(5,6)2-4/h2H2,1H3",OOXYGJSMTMPTFW-UHFFFAOYSA-N,?,55.0,101809
101811,421-06-7,30283-91-1,FC(F)(F)CBr,"1,1,1-Trifluoro-2-bromoethane",Bromotrifluoroethane,"2-Bromo-1,1,1-trifluoroethane",20857,DTXSID2074324,FC(F)(F)CBr,"InChI=1S/C2H2BrF3/c3-1-2(4,5)6/h1H2",TZNJHEHAYZJBHR-UHFFFAOYSA-N,?,26.0,101811
101812,421-20-5,421-20-5,COS(=O)(=O)F,Methyl Fluorosulfonate,"Fluorosulfuric acid, methyl ester",fluorosulfonyloxymethane,20858,DTXSID8073180,COS(=O)(=O)F,"InChI=1S/CH3FO3S/c1-5-6(2,3)4/h1H3",MBXNQZHITVCSLJ-UHFFFAOYSA-N,?,93.0,101812
101813,421-50-1,421-50-1,CC(=O)C(F)(F)F,"1,1,1-TRIFLUOROACETONE","2-Propanone, 1,1,1-trifluoro-","1,1,1-trifluoropropan-2-one",20859,DTXSID9059963,CC(=O)C(F)(F)F,"InChI=1S/C3H3F3O/c1-2(7)3(4,5)6/h1H3",FHUDAMLDXFJHJE-UHFFFAOYSA-N,?,22.0,101813
101815,422-03-7,422-03-7,NCC(F)(F)C(F)(F)F,"2,2,3,3,3-Pentafluoropropylamine","2,2,3,3,3-Pentafluoropropylamine","2,2,3,3,3-pentafluoropropan-1-amine",20861,DTXSID00195026,NCC(F)(F)C(F)(F)F,"InChI=1S/C3H4F5N/c4-2(5,1-9)3(6,7)8/h1,9H2",DPQNQLKPUVWGHE-UHFFFAOYSA-N,?,49.0,101815
101816,422-05-9,422-05-9,OCC(F)(F)C(F)(F)F,PENTAFLUORO-1-PROPANOL,"1-Propanol, 2,2,3,3,3-pentafluoro-","2,2,3,3,3-pentafluoropropan-1-ol",20862,DTXSID4059966,OCC(F)(F)C(F)(F)F,"InChI=1S/C3H3F5O/c4-2(5,1-9)3(6,7)8/h9H,1H2",PSQZJKGXDGNDFP-UHFFFAOYSA-N,?,82.0,101816
101817,422-56-0,422-56-0,FC(F)(F)C(F)(F)C(Cl)Cl,"3,3-Dichloro-1,1,1,2,2-pentafluoropropane","3,3-dichloro-1,1,1,2,2-pentafluoropropane","3,3-dichloro-1,1,1,2,2-pentafluoropropane",20863,DTXSID1042027,FC(F)(F)C(F)(F)C(Cl)Cl,"InChI=1S/C3HCl2F5/c4-1(5)2(6,7)3(8,9)10/h1H",COAUHYBSXMIJDK-UHFFFAOYSA-N,?,51.1,101817
101819,423-39-2,423-39-2,FC(F)(F)C(F)(F)C(F)(F)C(F)(F)I,"Butane, 1,1,1,2,2,3,3,4,4-nonafluoro-4-iodo-",Nonafluoro-1-iodobutane,"1,1,1,2,2,3,3,4,4-nonafluoro-4-iodobutane",20865,DTXSID0047583,FC(F)(F)C(F)(F)C(F)(F)C(F)(F)I,"InChI=1S/C4F9I/c5-1(6,3(9,10)11)2(7,8)4(12,13)14",PGRFXXCKHGIFSV-UHFFFAOYSA-N,?,67.0,101819
101821,423-55-2,423-55-2,FC(F)(F)C(F)(F)C(F)(F)C(F)(F)C(F)(F)C(F)(F)C(F)(F)C(F)(F)Br,Perflubron,1-Bromoheptadecafluorooctane,"1-bromo-1,1,2,2,3,3,4,4,5,5,6,6,7,7,8,8,8-heptadecafluorooctane",20866,DTXSID5046560,FC(F)(F)C(F)(F)C(F)(F)C(F)(F)C(F)(F)C(F)(F)C(F)(F)C(F)(F)Br,"InChI=1S/C8BrF17/c9-7(22,23)5(18,19)3(14,15)1(10,11)2(12,13)4(16,17)6(20,21)8(24,25)26",WTWWXOGTJWMJHI-UHFFFAOYSA-N,?,141.0,101821
101822,423-62-1,423-62-1,FC(F)(F)C(F)(F)C(F)(F)C(F)(F)C(F)(F)C(F)(F)C(F)(F)C(F)(F)C(F)(F)C(F)(F)I,"Decane, heneicosafluoro-10-iodo-","Decane, 1,1,1,2,2,3,3,4,4,5,5,6,6,7,7,8,8,9,9,10,10-heneicosafluoro-10-iodo-","1,1,1,2,2,3,3,4,4,5,5,6,6,7,7,8,8,9,9,10,10-henicosafluoro-10-iododecane",20867,DTXSID8059974,FC(F)(F)C(F)(F)C(F)(F)C(F)(F)C(F)(F)C(F)(F)C(F)(F)C(F)(F)C(F)(F)C(F)(F)I,"InChI=1S/C10F21I/c11-1(12,3(15,16)5(19,20)7(23,24)9(27,28)29)2(13,14)4(17,18)6(21,22)8(25,26)10(30,31)32",UDWBMXSQHOHKOI-UHFFFAOYSA-N,?,195.0,101822
101824,425-75-2,425-75-2,CCOS(=O)(=O)C(F)(F)F,"Methanesulfonic acid, trifluoro-, ethyl ester","Methanesulfonic acid, trifluoro-, ethyl ester",Ethyl trifluoromethanesulfonate,20869,DTXSID3059979,CCOS(=O)(=O)C(F)(F)F,"InChI=1S/C3H5F3O3S/c1-2-9-10(7,8)3(4,5)6/h2H2,1H3",UVECLJDRPFNRRQ-UHFFFAOYSA-N,?,115.0,101824
101825,428-59-1,428-59-1,FC(F)(F)C1(F)OC1(F)F,"Oxirane, trifluoro(trifluoromethyl)-","Oxirane, trifluoro(trifluoromethyl)-","2,2,3-trifluoro-3-(trifluoromethyl)oxirane",20870,DTXSID6029177,FC(F)(F)C1(F)OC1(F)F,"InChI=1S/C3F6O/c4-1(2(5,6)7)3(8,9)10-1",PGFXOWRDDHCDTE-UHFFFAOYSA-N,?,-27.4,101825
101827,430-51-3,430-51-3,CC(=O)CF,FLUOROACETONE,Fluoroacetone,1-fluoropropan-2-one,20871,DTXSID70195619,CC(=O)CF,"InChI=1S/C3H5FO/c1-3(5)2-4/h2H2,1H3",MSWVMWGCNZQPIA-UHFFFAOYSA-N,?,77.0,101827
101829,430-66-0,430-66-0,FCC(F)F,"1,1,2-TRIFLUOROETHANE",HFC-143,"1,1,2-TRIFLUOROETHANE",20873,DTXSID8073182,FCC(F)F,"InChI=1S/C2H3F3/c3-1-2(4)5/h2H,1H2",WGZYQOSEVSXDNI-UHFFFAOYSA-N,?,5.0,101829
101830,430-71-7,430-71-7,CCC(=O)F,Propanoyl fluoride,Propanoyl fluoride,Propanoyl fluoride,20874,DTXSID7059987,CCC(=O)F,"InChI=1S/C3H5FO/c1-2-3(4)5/h2H2,1H3",WMFABESKCHGSRC-UHFFFAOYSA-N,?,44.0,101830
101831,430-95-5,NOCAS_870534,CC(F)=C(Cl)Cl,"1-PROPENE, 1,1-DICHLORO-2-FLUORO-",,,20875,DTXSID10870534,CC(F)=C(Cl)Cl,InChI=1S/C3H3Cl2F/c1-2(6)3(4)5/h1H3,BJSMMNZAHNXJCF-UHFFFAOYSA-N,?,78.0,101831
101833,431-06-1,NOCAS_861928,FC(Cl)C(F)Cl,"1,2-DICHLORO-1,2-DIFLUOROETHANE",,,20877,DTXSID70861928,FC(Cl)C(F)Cl,InChI=1S/C2H2Cl2F2/c3-1(5)2(4)6/h1-2H,IDSKMUOSMAUASS-UHFFFAOYSA-N,?,46.8,101833
101834,431-07-2,NOCAS_861929,FC(F)C(F)Cl,"1-chloro-1,2,2-trifluoroethane",,,20878,DTXSID30861929,FC(F)C(F)Cl,InChI=1S/C2H2ClF3/c3-1(4)2(5)6/h1-2H,FWAQVJAOVDYHAF-UHFFFAOYSA-N,?,17.0,101834
101835,431-27-6,431-27-6,FC(F)(F)C(Cl)=CCl,"PROPENE, 1,2-DICHLORO-3,3,3-TRIFLUORO-",431-27-6,C3HCl2F3,20879,DTXSID70334561,FC(F)(F)C(Cl)=CCl,"InChI=1S/C3HCl2F3/c4-1-2(5)3(6,7)8/h1H/b2-1+",ZHJBJVPTRJNNIK-OWOJBTEDSA-N,?,53.7,101835
101837,431-52-7,431-52-7,FC(F)(F)C(Cl)=C(Cl)Cl,"1,1,2-Trichloro-3,3,3-trifluoro-1-propene","1-Propene, 1,1,2-trichloro-3,3,3-trifluoro-","1,1,2-trichloro-3,3,3-trifluoroprop-1-ene",20881,DTXSID8073184,FC(F)(F)C(Cl)=C(Cl)Cl,"InChI=1S/C3Cl3F3/c4-1(2(5)6)3(7,8)9",QSSVZVNYQIGOJR-UHFFFAOYSA-N,?,88.1,101837
101838,431-53-8,431-53-8,FC(Cl)=C(Cl)C(F)(F)F,"1-PROPENE, 1,2-DICHLORO-1,3,3,3-TETRAFLUORO-",431-53-8,C3Cl2F4,20882,DTXSID90334563,FC(Cl)=C(Cl)C(F)(F)F,"InChI=1S/C3Cl2F4/c4-1(2(5)6)3(7,8)9/b2-1+",BJDGSGIFQVXSGD-OWOJBTEDSA-N,?,47.3,101838
101840,431-87-8,431-87-8,FC(F)(F)C(Cl)C(F)(F)F,HCFC 226,HCFC-226da,"2-Chloro-1,1,1,3,3,3-hexafluoropropane",20883,DTXSID4075033,FC(F)(F)C(Cl)C(F)(F)F,"InChI=1S/C3HClF6/c4-1(2(5,6)7)3(8,9)10/h1H",BKWAVXQSZLEURV-UHFFFAOYSA-N,?,14.1,101840
101842,433-19-2,433-19-2,FC(F)(F)c1ccc(cc1)C(F)(F)F,"BENZENE, 1,4-BIS(TRIFLUOROMETHYL)-","1,4-Bis(trifluoromethyl)benzene","1,4-BIS(TRIFLUOROMETHYL)BENZENE",20885,DTXSID1059991,FC(F)(F)c1ccc(cc1)C(F)(F)F,"InChI=1S/C8H4F6/c9-7(10,11)5-1-2-6(4-3-5)8(12,13)14/h1-4H",PDCBZHHORLHNCZ-UHFFFAOYSA-N,?,116.0,101842
101843,433-27-2,NOCAS_870536,CCOC(O)C(F)(F)F,"Ethanol, 1-ethoxy-2,2,2-trifluoro-",,,20886,DTXSID30870536,CCOC(O)C(F)(F)F,"InChI=1S/C4H7F3O2/c1-2-9-3(8)4(5,6)7/h3,8H,2H2,1H3",KLXJPQNHFFMLIG-UHFFFAOYSA-N,?,104.5,101843
101844,434-45-7,434-45-7,O=C(c1ccccc1)C(F)(F)F,TRIFLUOROACETOPHENONE,"Ethanone, 2,2,2-trifluoro-1-phenyl-","2,2,2-Trifluoro-1-phenylethanone",20887,DTXSID6059992,O=C(c1ccccc1)C(F)(F)F,"InChI=1S/C8H5F3O/c9-8(10,11)7(12)6-4-2-1-3-5-6/h1-5H",KZJRKRQSDZGHEC-UHFFFAOYSA-N,?,153.0,101844
101846,434-90-2,434-90-2,Fc1c(-c2c(F)c(F)c(F)c(F)c2F)c(F)c(F)c(F)c1F,Decafluorobiphenyl,Decafluorobiphenyl,"1,2,3,4,5-pentafluoro-6-(2,3,4,5,6-pentafluorophenyl)benzene",20889,DTXSID7075341,Fc1c(-c2c(F)c(F)c(F)c(F)c2F)c(F)c(F)c(F)c1F,InChI=1S/C12F10/c13-3-1(4(14)8(18)11(21)7(3)17)2-5(15)9(19)12(22)10(20)6(2)16,ONUFSRWQCKNVSL-UHFFFAOYSA-N,?,206.0,101846
101847,440-60-8,440-60-8,OCc1c(F)c(F)c(F)c(F)c1F,"2,3,4,5,6-Pentafluorobenzyl Alcohol","2,3,4,5,6-Pentafluorobenzyl alcohol","(2,3,4,5,6-pentafluorophenyl)methanol",20890,DTXSID00196013,OCc1c(F)c(F)c(F)c(F)c1F,"InChI=1S/C7H3F5O/c8-3-2(1-13)4(9)6(11)7(12)5(3)10/h13H,1H2",PGJYYCIOYBZTPU-UHFFFAOYSA-N,?,181.0,101847
101848,443-83-4,443-83-4,Cc1c(F)cccc1Cl,"Benzene, 1-chloro-3-fluoro-2-methyl-",2-Chloro-6-fluorotoluene,1-Chloro-3-fluoro-2-methylbenzene,20891,DTXSID1059997,Cc1c(F)cccc1Cl,"InChI=1S/C7H6ClF/c1-5-6(8)3-2-4-7(5)9/h2-4H,1H3",FNPVYRJTBXHIPB-UHFFFAOYSA-N,?,154.0,101848
101850,446-10-6,446-10-6,Cc1ccc(F)cc1[N+]([O-])=O,2-Nitro-4-fluorotoluene,4-Fluoro-2-nitrotoluene,4-fluoro-1-methyl-2-nitrobenzene,20893,DTXSID80196233,Cc1ccc(F)cc1[N+]([O-])=O,"InChI=1S/C7H6FNO2/c1-5-2-3-6(8)4-7(5)9(10)11/h2-4H,1H3",SKWTUNAAJNDEIK-UHFFFAOYSA-N,?,213.0,101850
101851,446-35-5,446-35-5,[O-][N+](=O)c1ccc(F)cc1F,"Benzene, 2,4-difluoro-1-nitro-","2,4-Difluoronitrobenzene","2,4-difluoro-1-nitrobenzene",20894,DTXSID0032869,[O-][N+](=O)c1ccc(F)cc1F,InChI=1S/C6H3F2NO2/c7-4-1-2-6(9(10)11)5(8)3-4/h1-3H,RJXOVESYJFXCGI-UHFFFAOYSA-N,?,207.0,101851
101852,446-52-6,446-52-6,O=Cc1ccccc1F,2-FLUOR-BENZALDEHYD,2-Fluorobenzaldehyde,2-fluorobenzaldehyde,20895,DTXSID8022030,O=Cc1ccccc1F,InChI=1S/C7H5FO/c8-7-4-2-1-3-6(7)5-9/h1-5H,ZWDVQMVZZYIAHO-UHFFFAOYSA-N,?,175.0,101852
101854,447-60-9,447-60-9,N#Cc1ccccc1C(F)(F)F,"A,A,A-TRIFLUOR-O-TOLUNITRIL","alpha,alpha,alpha-Trifluoro-o-tolunitrile",2-(trifluoromethyl)benzonitrile,20897,DTXSID3022031,N#Cc1ccccc1C(F)(F)F,"InChI=1S/C8H4F3N/c9-8(10,11)7-4-2-1-3-6(7)5-12/h1-4H",SOZGHDCEWOLLHV-UHFFFAOYSA-N,?,205.0,101854
101855,451-40-1,451-40-1,O=C(Cc1ccccc1)c1ccccc1,2-PHENYLACETOPHENONE,"1,2-Diphenylethanone","1,2-diphenylethanone",20898,DTXSID6044430,O=C(Cc1ccccc1)c1ccccc1,"InChI=1S/C14H12O/c15-14(13-9-5-2-6-10-13)11-12-7-3-1-4-8-12/h1-10H,11H2",OTKCEEWUXHVZQI-UHFFFAOYSA-N,?,320.0,101855
101856,451-46-7,451-46-7,CCOC(=O)c1ccc(F)cc1,"Benzoic acid, 4-fluoro-, ethyl ester","Benzoic acid, 4-fluoro-, ethyl ester",Ethyl 4-fluorobenzoate,20899,DTXSID6060006,CCOC(=O)c1ccc(F)cc1,"InChI=1S/C9H9FO2/c1-2-12-9(11)7-3-5-8(10)6-4-7/h3-6H,2H2,1H3",UMPRJGKLMUDRHL-UHFFFAOYSA-N,?,210.0,101856
101858,452-86-8,452-86-8,Cc1cc(O)c(O)cc1,"1,2-BENZENEDIOL, 4-METHYL-",4-Methylcatechol,"4-methylbenzene-1,2-diol",20901,DTXSID5020861,Cc1cc(O)c(O)cc1,"InChI=1S/C7H8O2/c1-5-2-3-6(8)7(9)4-5/h2-4,8-9H,1H3",ZBCATMYQYDCTIZ-UHFFFAOYSA-N,?,251.0,101858
101859,453-18-9,453-18-9,COC(=O)CF,FLUORESSIGSAEURE-METHYLESTER,"Acetic acid, fluoro-, methyl ester",methyl 2-fluoroacetate,20902,DTXSID3073185,COC(=O)CF,"InChI=1S/C3H5FO2/c1-6-3(5)2-4/h2H2,1H3",RJBYSQHLLIHSLT-UHFFFAOYSA-N,?,104.5,101859
101860,453-20-3,NOCAS_868947,OC1COCC1,"3-Furanol, tetrahydro-",,,20903,DTXSID20868947,OC1COCC1,"InChI=1S/C4H8O2/c5-4-1-2-6-3-4/h4-5H,1-3H2",XDPCNPCKDGQBAN-UHFFFAOYSA-N,?,181.0,101860
101862,454-92-2,454-92-2,OC(=O)c1cc(ccc1)C(F)(F)F,M-TRIFLUOROMETHYLBENZOIC ACID,3-(Trifluoromethyl)benzoic acid,3-(trifluoromethyl)benzoic acid,20905,DTXSID2041460,OC(=O)c1cc(ccc1)C(F)(F)F,"InChI=1S/C8H5F3O2/c9-8(10,11)6-3-1-2-5(4-6)7(12)13/h1-4H,(H,12,13)",FQXQBFUUVCDIRK-UHFFFAOYSA-N,?,238.5,101862
101863,455-32-3,455-32-3,O=C(F)c1ccccc1,Benzoyl fluoride,Benzoyl fluoride,Benzoyl fluoride,20906,DTXSID5060019,O=C(F)c1ccccc1,InChI=1S/C7H5FO/c8-7(9)6-4-2-1-3-5-6/h1-5H,HPMLGNIUXVXALD-UHFFFAOYSA-N,?,154.5,101863
101864,456-47-3,456-47-3,OCc1cccc(F)c1,"BENZENEMETHANOL, 3-FLUORO-",3-Fluorobenzylic alcohol,(3-fluorophenyl)methanol,20907,DTXSID30196566,OCc1cccc(F)c1,"InChI=1S/C7H7FO/c8-7-3-1-2-6(4-7)5-9/h1-4,9H,5H2",QDHRSLFSDGCJFX-UHFFFAOYSA-N,?,201.0,101864
101866,456-49-5,456-49-5,COc1cccc(F)c1,M-FLUOROANISOLE,3-Fluoroanisole,1-FLUORO-3-METHOXYBENZENE,20909,DTXSID90196567,COc1cccc(F)c1,"InChI=1S/C7H7FO/c1-9-7-4-2-3-6(8)5-7/h2-5H,1H3",MFJNOXOAIFNSBX-UHFFFAOYSA-N,?,159.0,101866
101867,456-55-3,456-55-3,FC(F)(F)Oc1ccccc1,TRIFLUOROMETHOXYBENZENE,(Trifluoromethoxy)benzene,trifluoromethoxybenzene,20910,DTXSID4060028,FC(F)(F)Oc1ccccc1,"InChI=1S/C7H5F3O/c8-7(9,10)11-6-4-2-1-3-5-6/h1-5H",GQHWSLKNULCZGI-UHFFFAOYSA-N,?,102.0,101867
101868,458-03-7,458-03-7,CCOc1cccc(F)c1,"PHENETOLE, M-FLUORO-","Benzene, 1-ethoxy-3-fluoro-",1-ethoxy-3-fluorobenzene,20911,DTXSID70196621,CCOc1cccc(F)c1,"InChI=1S/C8H9FO/c1-2-10-8-5-3-4-7(9)6-8/h3-6H,2H2,1H3",UWWCZZMOTBWUAB-UHFFFAOYSA-N,?,172.0,101868
101870,459-26-7,459-26-7,CCOc1ccc(F)cc1,"BENZENE, 1-ETHOXY-4-FLUORO-",4-Fluorophenetole,1-ethoxy-4-fluorobenzene,20913,DTXSID90196643,CCOc1ccc(F)cc1,"InChI=1S/C8H9FO/c1-2-10-8-5-3-7(9)4-6-8/h3-6H,2H2,1H3",PURLWQWDGIIYBG-UHFFFAOYSA-N,?,173.0,101870
101871,459-56-3,459-56-3,OCc1ccc(F)cc1,"BENZENEMETHANOL, 4-FLUORO-","Benzenemethanol, 4-fluoro-",(4-fluorophenyl)methanol,20914,DTXSID4075409,OCc1ccc(F)cc1,"InChI=1S/C7H7FO/c8-7-3-1-6(5-9)2-4-7/h1-4,9H,5H2",GEZMEIHVFSWOCA-UHFFFAOYSA-N,?,210.0,101871
101872,459-57-4,459-57-4,O=Cc1ccc(F)cc1,"BENZALDEHYDE, 4-FLUORO-",4-Fluorobenzaldehyde,4-fluorobenzaldehyde,20915,DTXSID0038756,O=Cc1ccc(F)cc1,InChI=1S/C7H5FO/c8-7-3-1-6(5-9)2-4-7/h1-5H,UOQXIWFBQSVDPP-UHFFFAOYSA-N,?,181.5,101872
101874,459-72-3,459-72-3,CCOC(=O)CF,"Acetic acid, fluoro-, ethyl ester","Acetic acid, fluoro-, ethyl ester",ethyl 2-fluoroacetate,20917,DTXSID8060034,CCOC(=O)CF,"InChI=1S/C4H7FO2/c1-2-7-4(6)3-5/h2-3H2,1H3",VCYZVXRKYPKDQB-UHFFFAOYSA-N,?,120.0,101874
101875,459-73-4,459-73-4,CCOC(=O)CN,Amino-acetic acid ethyl ester,Glycine ethyl ester,ethyl 2-aminoacetate,20918,DTXSID90196648,CCOC(=O)CN,"InChI=1S/C4H9NO2/c1-2-7-4(6)3-5/h2-3,5H2,1H3",NTNZTEQNFHNYBC-UHFFFAOYSA-N,?,149.0,101875
101876,459-80-3,459-80-3,CC(C)=CCCC(C)=CC(O)=O,Decaprenoic acid,Geranic acid,"3,7-dimethylocta-2,6-dienoic acid",20919,DTXSID0047115,CC(C)=CCCC(C)=CC(O)=O,"InChI=1S/C10H16O2/c1-8(2)5-4-6-9(3)7-10(11)12/h5,7H,4,6H2,1-3H3,(H,11,12)/b9-7+",ZHYZQXUYZJNEHD-VQHVLOKHSA-N,?,250.0,101876
101878,460-12-8,460-12-8,C#CC#C,DIACETYLENE,"1,3-Butadiyne","buta-1,3-diyne",20921,DTXSID8060036,C#CC#C,InChI=1S/C4H2/c1-3-4-2/h1-2H,LLCSWKVOHICRDD-UHFFFAOYSA-N,?,10.3,101878
101879,460-13-9,460-13-9,CCCF,1-FLUOROPROPANE,1-Fluoropropane,1-FLUOROPROPANE,20922,DTXSID00196679,CCCF,"InChI=1S/C3H7F/c1-2-3-4/h2-3H2,1H3",JRHNUZCXXOTJCA-UHFFFAOYSA-N,?,2.5,101879
101880,460-32-2,460-32-2,FC(F)(F)CCBr,"3-BROMO-1,1,1-TRIFLUOROPROPANE","3-Bromo-1,1,1-trifluoropropane",C3H4BrF3,20923,DTXSID80369364,FC(F)(F)CCBr,"InChI=1S/C3H4BrF3/c4-2-1-3(5,6)7/h1-2H2",SAUGMJLWYLQPEM-UHFFFAOYSA-N,?,63.5,101880
101882,460-36-6,NOCAS_870541,FCCC(F)(F)F,"1,1,1,3-Tetrafluoropropane",,,20925,DTXSID80870541,FCCC(F)(F)F,"InChI=1S/C3H4F4/c4-2-1-3(5,6)7/h1-2H2",PFFGXVGPSGJOBV-UHFFFAOYSA-N,?,29.4,101882
101883,460-73-1,460-73-1,FC(F)CC(F)(F)F,HFC-245fa,"1,1,1,3,3-Pentafluoropropane","1,1,1,3,3-pentafluoropropane",20926,DTXSID6052110,FC(F)CC(F)(F)F,"InChI=1S/C3H3F5/c4-2(5)1-3(6,7)8/h2H,1H2",MSSNHSVIGIHOJA-UHFFFAOYSA-N,?,40.0,101883
101884,461-18-7,461-18-7,OCCCC(F)(F)F,"4,4,4-TRIFLUORO-1-BUTANOL","4,4,4-Trifluorobutanol","4,4,4-trifluorobutan-1-ol",20927,DTXSID40196714,OCCCC(F)(F)F,"InChI=1S/C4H7F3O/c5-4(6,7)2-1-3-8/h8H,1-3H2",VKRFUGHXKNNIJO-UHFFFAOYSA-N,?,125.0,101884
101886,462-06-6,462-06-6,Fc1ccccc1,FLUOROBENZENE,Fluorobenzene,fluorobenzene,20929,DTXSID4025329,Fc1ccccc1,InChI=1S/C6H5F/c7-6-4-2-1-3-5-6/h1-5H,PYLWMHQQBFSUBP-UHFFFAOYSA-N,?,84.7,101886
101887,462-08-8,462-08-8,Nc1c[n]ccc1,3-AMINOPYRIDINE,3-Pyridinamine,pyridin-3-amine,20930,DTXSID9047461,Nc1c[n]ccc1,"InChI=1S/C5H6N2/c6-5-2-1-3-7-4-5/h1-4H,6H2",CUYKNJBYIJFRCU-UHFFFAOYSA-N,?,252.0,101887
101888,462-18-0,462-18-0,CCCCCCC(=O)CCCCCC,TRIDECAN-7-ONE,7-Tridecanone,tridecan-7-one,20931,DTXSID8022034,CCCCCCC(=O)CCCCCC,"InChI=1S/C13H26O/c1-3-5-7-9-11-13(14)12-10-8-6-4-2/h3-12H2,1-2H3",ULIAPOFMBCCSPE-UHFFFAOYSA-N,?,261.0,101888
101890,462-39-5,462-39-5,FCCCF,"1,3-difluoropropane","Propane, 1,3-difluoro-","1,3-Difluoropropane",20933,DTXSID70196762,FCCCF,InChI=1S/C3H6F2/c4-2-1-3-5/h1-3H2,OOLOYCGJRJFTPM-UHFFFAOYSA-N,?,41.6,101890
101891,462-43-1,462-43-1,OCCCF,3-FLUOROPROPANOL,"Propanol, 3-fluoro-",3-fluoropropan-1-ol,20934,DTXSID90196764,OCCCF,"InChI=1S/C3H7FO/c4-2-1-3-5/h5H,1-3H2",NLRJUIXKEMCEOH-UHFFFAOYSA-N,?,127.8,101891
101892,462-72-6,462-72-6,FCCCCBr,1-Bromo-4-fluorobutane,"Butane, 1-bromo-4-fluoro-",1-bromo-4-fluorobutane,20935,DTXSID70196767,FCCCCBr,InChI=1S/C4H8BrF/c5-3-1-2-4-6/h1-4H2,WMCUHRDQSHQNRW-UHFFFAOYSA-N,?,135.0,101892
101894,462-94-2,462-94-2,NCCCCCN,Cadaverine,Cadaverine,"PENTANE-1,5-DIAMINE",20937,DTXSID5075448,NCCCCCN,InChI=1S/C5H14N2/c6-4-2-1-3-5-7/h1-7H2,VHRGRCVQAFMJIZ-UHFFFAOYSA-N,?,179.0,101894