ChemID,source_casrn,CAS,SMILES,NAME,preferred_name,iupac,MPID,dsstox_substance_id,Canonical_QSARr,InChI_Code_QSARr,InChI Key_QSARr,Salt_Solvent,BP,ID
100255,79-08-3,79-08-3,OC(=O)CBr,BROMOACETIC ACID,Bromoacetic acid,bromoacetic acid,19336,DTXSID7021495,OC(=O)CBr,"InChI=1S/C2H3BrO2/c3-1-2(4)5/h1H2,(H,4,5)",KDPAWGWELVVRCH-UHFFFAOYSA-N,?,208.0,100255
100256,79-09-4,79-09-4,CCC(O)=O,PROPIONIC ACID,Propionic acid,propanoic acid,19337,DTXSID8025961,CCC(O)=O,"InChI=1S/C3H6O2/c1-2-3(4)5/h2H2,1H3,(H,4,5)",XBDQKXXYIPTUBI-UHFFFAOYSA-N,?,141.1,100256
100258,79-11-8,79-11-8,OC(=O)CCl,CHLOROACETIC ACID,Chloroacetic acid,chloroacetic acid,19339,DTXSID4020901,OC(=O)CCl,"InChI=1S/C2H3ClO2/c3-1-2(4)5/h1H2,(H,4,5)",FOCAUTSVDIKZOP-UHFFFAOYSA-N,?,189.3,100258
100259,79-16-3,79-16-3,CNC(C)=O,N-METHYLACETAMIDE,N-Methylacetamide,N-methylacetamide,19340,DTXSID0047167,CNC(C)=O,"InChI=1S/C3H7NO/c1-3(5)4-2/h1-2H3,(H,4,5)",OHLUUHNLEMFGTQ-UHFFFAOYSA-N,?,205.0,100259
100260,79-20-9,79-20-9,COC(C)=O,METHYL ACETATE,Methyl acetate,methyl acetate,19341,DTXSID4021767,COC(C)=O,InChI=1S/C3H6O2/c1-3(4)5-2/h1-2H3,KXKVLQRXCPHEJC-UHFFFAOYSA-N,?,56.8,100260
100262,79-22-1,79-22-1,COC(=O)Cl,METHYL CHLOROFORMATE,Methyl chlorocarbonate,methyl carbonochloridate,19343,DTXSID0024185,COC(=O)Cl,InChI=1S/C2H3ClO2/c1-5-2(3)4/h1H3,XMJHPCRAQCTCFT-UHFFFAOYSA-N,?,70.5,100262
100263,79-24-3,79-24-3,CC[N+]([O-])=O,NITROETHANE,Nitroethane,nitroethane,19344,DTXSID8020969,CC[N+]([O-])=O,"InChI=1S/C2H5NO2/c1-2-3(4)5/h2H2,1H3",MCSAJNNLRCFZED-UHFFFAOYSA-N,?,114.0,100263
100264,79-27-6,79-27-6,BrC(Br)C(Br)Br,"1,1,2,2-TETRABROMOETHANE","1,1,2,2-Tetrabromoethane","1,1,2,2-tetrabromoethane",19345,DTXSID1026083,BrC(Br)C(Br)Br,InChI=1S/C2H2Br4/c3-1(4)2(5)6/h1-2H,QXSZNDIIPUOQMB-UHFFFAOYSA-N,?,243.5,100264
100266,79-29-8,79-29-8,CC(C)C(C)C,"2,3-DIMETHYLBUTANE","2,3-Dimethylbutane","2,3-dimethylbutane",19347,DTXSID9025112,CC(C)C(C)C,"InChI=1S/C6H14/c1-5(2)6(3)4/h5-6H,1-4H3",ZFFMLCVRJBZUDZ-UHFFFAOYSA-N,?,57.9,100266
100267,79-30-1,79-30-1,CC(C)C(=O)Cl,"Propanoyl chloride, 2-methyl-",2-Methylpropanoyl chloride,2-methylpropanoyl chloride,19348,DTXSID0052542,CC(C)C(=O)Cl,"InChI=1S/C4H7ClO/c1-3(2)4(5)6/h3H,1-2H3",DGMOBVGABMBZSB-UHFFFAOYSA-N,?,92.0,100267
100268,79-31-2,79-31-2,CC(C)C(O)=O,ISOBUTYRIC ACID,2-Methylpropanoic acid,2-methylpropanoic acid,19349,DTXSID4021636,CC(C)C(O)=O,"InChI=1S/C4H8O2/c1-3(2)4(5)6/h3H,1-2H3,(H,5,6)",KQNPFQTWMSNSAP-UHFFFAOYSA-N,?,154.4,100268
100270,79-35-6,79-35-6,FC(F)=C(Cl)Cl,"1,1-DICHLORO-2,2-DIFLUOROETHYLENE","Ethene, 1,1-dichloro-2,2-difluoro-","1,1-dichloro-2,2-difluoroethene",19351,DTXSID6073150,FC(F)=C(Cl)Cl,InChI=1S/C2Cl2F2/c3-1(4)2(5)6,QDGONURINHVBEW-UHFFFAOYSA-N,?,19.0,100270
100271,79-36-7,79-36-7,O=C(Cl)C(Cl)Cl,DICHLOROACETYL CHLORIDE,Dichloroacetyl chloride,dichloroacetyl chloride,19352,DTXSID6024965,O=C(Cl)C(Cl)Cl,InChI=1S/C2HCl3O/c3-1(4)2(5)6/h1H,FBCCMZVIWNDFMO-UHFFFAOYSA-N,?,108.0,100271
100272,79-37-8,79-37-8,O=C(Cl)C(=O)Cl,Ethanedioyl dichloride,Ethanedioyl dichloride,Oxalyl dichloride,19353,DTXSID3058822,O=C(Cl)C(=O)Cl,InChI=1S/C2Cl2O2/c3-1(5)2(4)6,CTSLXHKWHWQRSH-UHFFFAOYSA-N,?,63.5,100272
100274,79-41-4,79-41-4,CC(=C)C(O)=O,METHACRYLIC ACID,Methacrylic acid,2-methylprop-2-enoic acid,19355,DTXSID3025542,CC(=C)C(O)=O,"InChI=1S/C4H6O2/c1-3(2)4(5)6/h1H2,2H3,(H,5,6)",CERQOIWHTDAKMF-UHFFFAOYSA-N,?,163.0,100274
100275,79-43-6,79-43-6,OC(=O)C(Cl)Cl,DICHLOROACETIC ACID,Dichloroacetic acid,dichloroacetic acid,19356,DTXSID2020428,OC(=O)C(Cl)Cl,"InChI=1S/C2H2Cl2O2/c3-1(4)2(5)6/h1H,(H,5,6)",JXTHNDFMNIQAHM-UHFFFAOYSA-N,?,194.0,100275
100276,79-44-7,79-44-7,CN(C)C(=O)Cl,DIMETHYLCARBAMYL CHLORIDE,Dimethylcarbamoyl chloride,dimethylcarbamic chloride,19357,DTXSID1020512,CN(C)C(=O)Cl,InChI=1S/C3H6ClNO/c1-5(2)3(4)6/h1-2H3,YIIMEMSDCNDGTB-UHFFFAOYSA-N,?,167.0,100276
100278,79-53-8,79-53-8,O=C(C(F)(F)Cl)C(F)(F)F,CHLOROPENTAFLUOROACETONE,"2-Propanone, 1-chloro-1,1,3,3,3-pentafluoro-","1-chloro-1,1,3,3,3-pentafluoropropan-2-one",19359,DTXSID6073152,O=C(C(F)(F)Cl)C(F)(F)F,"InChI=1S/C3ClF5O/c4-2(5,6)1(10)3(7,8)9",OJUUDWYPNQALHZ-UHFFFAOYSA-N,?,8.0,100278
100279,79-55-0,79-55-0,CN1C(C)(C)CCCC1(C)C,"Piperidine, 1,2,2,6,6-pentamethyl-",Pempidine,"1,2,2,6,6-pentamethylpiperidine",19360,DTXSID7046962,CN1C(C)(C)CCCC1(C)C,"InChI=1S/C10H21N/c1-9(2)7-6-8-10(3,4)11(9)5/h6-8H2,1-5H3",XULIXFLCVXWHRF-UHFFFAOYSA-N,?,147.0,100279
100280,79-92-5|5794-03-6,79-92-5|5794-03-6,CC1(C)C2CC(CC2)C1=C,"CAMPHENE, (+)-Camphene",Camphene,C10H16,19361|23843,DTXSID8026488|DTXSID10872336,CC1(C)C2CC(CC2)C1=C,"InChI=1S/C10H16/c1-7-8-4-5-9(6-8)10(7,2)3/h8-9H,1,4-6H2,2-3H3",CRPUJAZIXJMDBK-UHFFFAOYSA-N,?,159.5,100280
100282,80-43-3,80-43-3,CC(C)(OOC(C)(C)c1ccccc1)c1ccccc1,"PEROXIDE, BIS(1-METHYL-1-PHENYLETHYL)",Dicumyl peroxide,bis(2-phenylpropan-2-yl) peroxide,19363,DTXSID1025017,CC(C)(OOC(C)(C)c1ccccc1)c1ccccc1,"InChI=1S/C18H22O2/c1-17(2,15-11-7-5-8-12-15)19-20-18(3,4)16-13-9-6-10-14-16/h5-14H,1-4H3",XMNIXWIUMCBBBL-UHFFFAOYSA-N,?,396.0,100282
100283,80-46-6,80-46-6,CC(C)(CC)c1ccc(O)cc1,P-TERT-AMYLPHENOL,4-(2-Methylbutan-2-yl)phenol,4-(2-methylbutan-2-yl)phenol,19364,DTXSID8021771,CC(C)(CC)c1ccc(O)cc1,"InChI=1S/C11H16O/c1-4-11(2,3)9-5-7-10(12)8-6-9/h5-8,12H,4H2,1-3H3",NRZWYNLTFLDQQX-UHFFFAOYSA-N,?,262.5,100283
100284,80-48-8,80-48-8,Cc1ccc(cc1)S(=O)(=O)OC,"Benzenesulfonic acid, 4-methyl-, methyl ester",Methyl toluene-4-sulphonate,methyl 4-methylbenzenesulfonate,19365,DTXSID4052550,Cc1ccc(cc1)S(=O)(=O)OC,"InChI=1S/C8H10O3S/c1-7-3-5-8(6-4-7)12(9,10)11-2/h3-6H,1-2H3",VUQUOGPMUUJORT-UHFFFAOYSA-N,?,292.0,100284
100286,80-56-8|2437-95-8|7785-26-4|7785-70-8,80-56-8|7785-26-4|7785-70-8,CC1=CCC2CC1C2(C)C,"ALPHA-PINENE, DL-PIN-2(3)-ENE, Bicyclo 3.1.1 hept-2-ene, 2,6,6-trimethyl-, (1S), (+)-alpha-Pinene",alpha-Pinene,"2,6,6-trimethylbicyclo[3.1.1]hept-2-ene",19367|23236|24061|24062,DTXSID4026501|DTXSID2029290|DTXSID7041671,CC1=CCC2CC1C2(C)C,"InChI=1S/C10H16/c1-7-4-5-8-6-9(7)10(8,2)3/h4,8-9H,5-6H2,1-3H3",GRWFGVWFFZKLTI-UHFFFAOYSA-N,?,156.14999999999998,100286
100287,80-59-1,NOCAS_861643,C/C(=C\C)/C(O)=O,TIGLIC ACID,,,19368,DTXSID50861643,CC(=CC)C(O)=O,"InChI=1S/C5H8O2/c1-3-4(2)5(6)7/h3H,1-2H3,(H,6,7)/b4-3-",UIERETOOQGIECD-ARJAWSKDSA-N,?,198.5,100287
100288,80-62-6,80-62-6,CC(=C)C(=O)OC,METHYL METHACRYLATE,Methyl methacrylate,methyl 2-methylprop-2-enoate,19369,DTXSID2020844,CC(=C)C(=O)OC,"InChI=1S/C5H8O2/c1-4(2)5(6)7-3/h1H2,2-3H3",VVQNEPGJFQJSBK-UHFFFAOYSA-N,?,100.5,100288
100290,81-20-9,81-20-9,Cc1cccc(C)c1[N+]([O-])=O,"1,3-DIMETHYL-2-NITROBENZENE","1,3-Dimethyl-2-nitrobenzene","1,3-dimethyl-2-nitrobenzene",19371,DTXSID7025134,Cc1cccc(C)c1[N+]([O-])=O,"InChI=1S/C8H9NO2/c1-6-4-3-5-7(2)8(6)9(10)11/h3-5H,1-2H3",HDFQKJQEWGVKCQ-UHFFFAOYSA-N,?,226.0,100290
100291,82-68-8,82-68-8,[O-][N+](=O)c1c(Cl)c(Cl)c(Cl)c(Cl)c1Cl,PENTACHLORONITROBENZENE,Pentachloronitrobenzene,"1,2,3,4,5-pentachloro-6-nitrobenzene",19372,DTXSID2021105,[O-][N+](=O)c1c(Cl)c(Cl)c(Cl)c(Cl)c1Cl,InChI=1S/C6Cl5NO2/c7-1-2(8)4(10)6(12(13)14)5(11)3(1)9,LKPLKUMXSAEKID-UHFFFAOYSA-N,?,328.0,100291
100292,83-25-0,83-25-0,O=C1CCC(=O)N1c1ccccc1,N-PHENYLSUCCINIMIDE,Succinanil,"1-phenylpyrrolidine-2,5-dione",19373,DTXSID60232108,O=C1CCC(=O)N1c1ccccc1,"InChI=1S/C10H9NO2/c12-9-6-7-10(13)11(9)8-4-2-1-3-5-8/h1-5H,6-7H2",ZTUKZULGOCFJET-UHFFFAOYSA-N,?,400.0,100292
100294,83-33-0,83-33-0,O=C1CCc2ccccc21,"1H-Inden-1-one, 2,3-dihydro-","1H-Inden-1-one, 2,3-dihydro-","2,3-dihydroinden-1-one",19375,DTXSID1058892,O=C1CCc2ccccc21,"InChI=1S/C9H8O/c10-9-6-5-7-3-1-2-4-8(7)9/h1-4H,5-6H2",QNXSIUBBGPHDDE-UHFFFAOYSA-N,?,243.0,100294
100295,83-34-1,83-34-1,Cc1c[nH]c2ccccc21,3-METHYLINDOLE,3-Methylindole,3-methyl-1H-indole,19376,DTXSID8021775,Cc1c[nH]c2ccccc21,"InChI=1S/C9H9N/c1-7-6-10-9-5-3-2-4-8(7)9/h2-6,10H,1H3",ZFRKQXVRDFCRJG-UHFFFAOYSA-N,?,266.0,100295
100296,83-41-0,83-41-0,Cc1cccc(c1C)[N+]([O-])=O,"1,2-DIMETHYL-3-NITROBENZENE","1,2-Dimethyl-3-nitrobenzene","1,2-dimethyl-3-nitrobenzene",19377,DTXSID7025132,Cc1cccc(c1C)[N+]([O-])=O,"InChI=1S/C8H9NO2/c1-6-4-3-5-8(7(6)2)9(10)11/h3-5H,1-2H3",FVHAWXWFPBPFOS-UHFFFAOYSA-N,?,240.0,100296
100298,83-53-4,83-53-4,Brc1ccc(Br)c2ccccc12,"Naphthalene, 1,4-dibromo-","Naphthalene, 1,4-dibromo-","1,4-Dibromonaphthalene",19379,DTXSID6058893,Brc1ccc(Br)c2ccccc12,InChI=1S/C10H6Br2/c11-9-5-6-10(12)8-4-2-1-3-7(8)9/h1-6H,IBGUDZMIAZLJNY-UHFFFAOYSA-N,?,310.0,100298
100299,84-11-7,84-11-7,O=C1c2ccccc2-c2ccccc2C1=O,"9,10-PHENANTHRENEDIONE","9,10-Phenanthrenedione","Phenanthrene-9,10-dione",19380,DTXSID3058901,O=C1c2ccccc2-c2ccccc2C1=O,InChI=1S/C14H8O2/c15-13-11-7-3-1-5-9(11)10-6-2-4-8-12(10)14(13)16/h1-8H,YYVYAPXYZVYDHN-UHFFFAOYSA-N,?,360.0,100299
100300,84-15-1,84-15-1,c1ccccc1-c1ccccc1-c1ccccc1,O-TERPHENYL,o-Terphenyl,"1,1':2',1''-terphenyl",19381,DTXSID1049697,c1ccccc1-c1ccccc1-c1ccccc1,InChI=1S/C18H14/c1-3-9-15(10-4-1)17-13-7-8-14-18(17)16-11-5-2-6-12-16/h1-14H,OIAQMFOKAXHPNH-UHFFFAOYSA-N,?,332.0,100300
100302,84-66-2,84-66-2,CCOC(=O)c1ccccc1C(=O)OCC,DIETHYL PHTHALATE,Diethyl phthalate,"diethyl benzene-1,2-dicarboxylate",19383,DTXSID7021780,CCOC(=O)c1ccccc1C(=O)OCC,"InChI=1S/C12H14O4/c1-3-15-11(13)9-7-5-6-8-10(9)12(14)16-4-2/h5-8H,3-4H2,1-2H3",FLKPEMZONWLCSK-UHFFFAOYSA-N,?,295.0,100302
100303,84-69-5,84-69-5,CC(C)COC(=O)c1ccccc1C(=O)OCC(C)C,DI-ISOBUTYLPHTHALATE,Diisobutyl phthalate,"bis(2-methylpropyl) benzene-1,2-dicarboxylate",19384,DTXSID9022522,CC(C)COC(=O)c1ccccc1C(=O)OCC(C)C,"InChI=1S/C16H22O4/c1-11(2)9-19-15(17)13-7-5-6-8-14(13)16(18)20-10-12(3)4/h5-8,11-12H,9-10H2,1-4H3",MGWAVDBGNNKXQV-UHFFFAOYSA-N,?,296.0,100303
100304,84-74-2,84-74-2,CCCCOC(=O)c1ccccc1C(=O)OCCCC,DIBUTYL PHTHALATE,Dibutyl phthalate,"dibutyl benzene-1,2-dicarboxylate",19385,DTXSID2021781,CCCCOC(=O)c1ccccc1C(=O)OCCCC,"InChI=1S/C16H22O4/c1-3-5-11-19-15(17)13-9-7-8-10-14(13)16(18)20-12-6-4-2/h7-10H,3-6,11-12H2,1-2H3",DOIRQSBPFJWKBE-UHFFFAOYSA-N,?,340.0,100304
100306,85-01-8,85-01-8,c1cc2ccccc2c2ccccc21,PHENANTHRENE,Phenanthrene,phenanthrenato,19387,DTXSID6024254,c1cc2ccccc2c2ccccc21,InChI=1S/C14H10/c1-3-7-13-11(5-1)9-10-12-6-2-4-8-14(12)13/h1-10H,YNPNZTXNASCQKK-UHFFFAOYSA-N,?,340.0,100306
100307,85-02-9,85-02-9,c1cccc2c3ccc[n]c3ccc21,BENZO(F)QUINOLINE,Benzo(f)quinoline,benzo[f]quinoline,19388,DTXSID2024585,c1cccc2c3ccc[n]c3ccc21,InChI=1S/C13H9N/c1-2-5-11-10(4-1)7-8-13-12(11)6-3-9-14-13/h1-9H,HCAUQPZEWLULFJ-UHFFFAOYSA-N,?,352.0,100307
100308,85-44-9,85-44-9,O=C1OC(=O)c2ccccc12,PHTHALIC ANHYDRIDE,Phthalic anhydride,"2-benzofuran-1,3-dione",19389,DTXSID2021159,O=C1OC(=O)c2ccccc12,InChI=1S/C8H4O3/c9-7-5-3-1-2-4-6(5)8(10)11-7/h1-4H,LGRFSURHDFAFJT-UHFFFAOYSA-N,?,295.0,100308
100310,85-68-7,85-68-7,CCCCOC(=O)c1ccccc1C(=O)OCc1ccccc1,BUTYL BENZYL PHTHALATE,Butyl benzyl phthalate,"benzyl butyl benzene-1,2-dicarboxylate",19391,DTXSID3020205,CCCCOC(=O)c1ccccc1C(=O)OCc1ccccc1,"InChI=1S/C19H20O4/c1-2-3-13-22-18(20)16-11-7-8-12-17(16)19(21)23-14-15-9-5-4-6-10-15/h4-12H,2-3,13-14H2,1H3",IRIAEXORFWYRCZ-UHFFFAOYSA-N,?,370.0,100310
100311,85-91-6,85-91-6,CNc1ccccc1C(=O)OC,"Benzoic acid, 2-(methylamino)-, methyl ester",Methyl 2-(methylamino)benzoate,methyl 2-(methylamino)benzoate,19392,DTXSID1052581,CNc1ccccc1C(=O)OC,"InChI=1S/C9H11NO2/c1-10-8-6-4-3-5-7(8)9(11)12-2/h3-6,10H,1-2H3",GVOWHGSUZUUUDR-UHFFFAOYSA-N,?,255.0,100311
100312,86-00-0,86-00-0,[O-][N+](=O)c1ccccc1-c1ccccc1,2-Nitrobiphenyl,"2-Nitro-1,1'-biphenyl",2-nitrobiphenyl,19393,DTXSID9025746,[O-][N+](=O)c1ccccc1-c1ccccc1,InChI=1S/C12H9NO2/c14-13(15)12-9-5-4-8-11(12)10-6-2-1-3-7-10/h1-9H,YOJKKXRJMXIKSR-UHFFFAOYSA-N,?,320.0,100312
100314,86-52-2,86-52-2,ClCc1cccc2ccccc21,"Naphthalene, 1-(chloromethyl)-","Naphthalene, 1-(chloromethyl)-",1-(Chloromethyl)naphthalene,19395,DTXSID5058939,ClCc1cccc2ccccc21,"InChI=1S/C11H9Cl/c12-8-10-6-3-5-9-4-1-2-7-11(9)10/h1-7H,8H2",XMWGTKZEDLCVIG-UHFFFAOYSA-N,?,291.5,100314
100315,86-53-3,86-53-3,N#Cc1cccc2ccccc21,1-Naphthalenecarbonitrile,1-Naphthalenecarbonitrile,Naphthalene-1-carbonitrile,19396,DTXSID4058940,N#Cc1cccc2ccccc21,InChI=1S/C11H7N/c12-8-10-6-3-5-9-4-1-2-7-11(9)10/h1-7H,YJMNOKOLADGBKA-UHFFFAOYSA-N,?,299.0,100315
100317,86-56-6,86-56-6,CN(C)c1cccc2ccccc21,"1-NAPHTHALENAMINE, N,N-DIMETHYL-","1-Naphthalenamine, N,N-dimethyl-","N,N-dimethylnaphthalen-1-amine",19397,DTXSID9058941,CN(C)c1cccc2ccccc21,"InChI=1S/C12H13N/c1-13(2)12-9-5-7-10-6-3-4-8-11(10)12/h3-9H,1-2H3",AJUXDFHPVZQOGF-UHFFFAOYSA-N,?,280.0,100317
100319,86-73-7,86-73-7,C1c2ccccc2-c2ccccc21,9H-FLUORENE,Fluorene,9H-fluorene,19399,DTXSID8024105,C1c2ccccc2-c2ccccc21,"InChI=1S/C13H10/c1-3-7-12-10(5-1)9-11-6-2-4-8-13(11)12/h1-8H,9H2",NIHNNTQXNPWCJQ-UHFFFAOYSA-N,?,295.0,100319
100320,86-74-8,86-74-8,c1cccc2[nH]c3ccccc3c21,CARBAZOLE,Carbazole,9H-carbazole,19400,DTXSID4020248,c1cccc2[nH]c3ccccc3c21,"InChI=1S/C12H9N/c1-3-7-11-9(5-1)10-6-2-4-8-12(10)13-11/h1-8,13H",UJOBWOGCFQCDNV-UHFFFAOYSA-N,?,354.7,100320
100321,86-84-0,86-84-0,O=C=Nc1cccc2ccccc21,"Naphthalene, 1-isocyanato-",1-Isocyanatonaphthalene,1-Isocyanatonaphthalene,19401,DTXSID9058949,O=C=Nc1cccc2ccccc21,InChI=1S/C11H7NO/c13-8-12-11-7-3-5-9-4-1-2-6-10(9)11/h1-7H,BDQNKCYCTYYMAA-UHFFFAOYSA-N,?,269.0,100321
100323,87-20-7,87-20-7,CC(C)CCOC(=O)c1ccccc1O,"Benzoic acid, 2-hydroxy-, 3-methylbutyl ester",Isoamyl salicylate,3-methylbutyl 2-hydroxybenzoate,19403,DTXSID9041655,CC(C)CCOC(=O)c1ccccc1O,"InChI=1S/C12H16O3/c1-9(2)7-8-15-12(14)10-5-3-4-6-11(10)13/h3-6,9,13H,7-8H2,1-2H3",PMGCQNGBLMMXEW-UHFFFAOYSA-N,?,278.0,100323
100324,87-24-1,87-24-1,Cc1ccccc1C(=O)OCC,"Benzoic acid, 2-methyl-, ethyl ester",Ethyl 2-methylbenzoate,ethyl 2-methylbenzoate,19404,DTXSID4040711,Cc1ccccc1C(=O)OCC,"InChI=1S/C10H12O2/c1-3-12-10(11)9-7-5-4-6-8(9)2/h4-7H,3H2,1-2H3",SOUAXOGPALPTTC-UHFFFAOYSA-N,?,227.0,100324
100325,87-25-2,87-25-2,CCOC(=O)c1ccccc1N,"O-AMINOBENZOIC ACID, ETHYL ESTER",Ethyl anthranilate,ethyl 2-aminobenzoate,19405,DTXSID6025272,CCOC(=O)c1ccccc1N,"InChI=1S/C9H11NO2/c1-2-12-9(11)7-5-3-4-6-8(7)10/h3-6H,2,10H2,1H3",TWLLPUMZVVGILS-UHFFFAOYSA-N,?,268.0,100325
100327,87-41-2,87-41-2,O=C1OCc2ccccc21,PHTHALIDE,Phthalide,2-benzofuran-1(3H)-one,19407,DTXSID0052594,O=C1OCc2ccccc21,"InChI=1S/C8H6O2/c9-8-7-4-2-1-3-6(7)5-10-8/h1-4H,5H2",WNZQDUSMALZDQF-UHFFFAOYSA-N,?,290.0,100327
100328,87-59-2,87-59-2,Cc1cccc(N)c1C,"2,3-DIMETHYLANILINE","2,3-Dimethylaniline","2,3-dimethylaniline",19408,DTXSID3026304,Cc1cccc(N)c1C,"InChI=1S/C8H11N/c1-6-4-3-5-8(9)7(6)2/h3-5H,9H2,1-2H3",VVAKEQGKZNKUSU-UHFFFAOYSA-N,?,221.5,100328
100329,87-60-5,87-60-5,Cc1c(N)cccc1Cl,2-METHYL-3-CHLOROANILINE,3-Chloro-2-methylaniline,3-chloro-2-methylaniline,19409,DTXSID3024815,Cc1c(N)cccc1Cl,"InChI=1S/C7H8ClN/c1-5-6(8)3-2-4-7(5)9/h2-4H,9H2,1H3",ZUVPLKVDZNDZCM-UHFFFAOYSA-N,?,245.0,100329
100331,87-62-7,87-62-7,Cc1cccc(C)c1N,"2,6-DIMETHYLANILINE","2,6-Dimethylaniline","2,6-dimethylaniline",19411,DTXSID8026307,Cc1cccc(C)c1N,"InChI=1S/C8H11N/c1-6-4-3-5-7(2)8(6)9/h3-5H,9H2,1-2H3",UFFBMTHBGFGIHF-UHFFFAOYSA-N,?,215.0,100331
100332,87-63-8,87-63-8,Cc1cccc(Cl)c1N,"Benzenamine, 2-chloro-6-methyl-",6-Chloro-2-methylaniline,2-Chloro-6-methylaniline,19412,DTXSID8058956,Cc1cccc(Cl)c1N,"InChI=1S/C7H8ClN/c1-5-3-2-4-6(8)7(5)9/h2-4H,9H2,1H3",WFNLHDJJZSJARK-UHFFFAOYSA-N,?,215.0,100332
100333,87-64-9,87-64-9,Cc1cccc(Cl)c1O,2-METHYL-6-CHLOROPHENOL,6-Chloro-o-cresol,2-Chloro-6-methylphenol,19413,DTXSID0075362,Cc1cccc(Cl)c1O,"InChI=1S/C7H7ClO/c1-5-3-2-4-6(8)7(5)9/h2-4,9H,1H3",YPNZJHFXFVLXSE-UHFFFAOYSA-N,?,189.0,100333
100335,87-66-1,87-66-1,Oc1c(O)cccc1O,"1,2,3-TRIHYDROXYBENZENE",Pyrogallol,"benzene-1,2,3-triol",19415,DTXSID6025983,Oc1c(O)cccc1O,"InChI=1S/C6H6O3/c7-4-2-1-3-5(8)6(4)9/h1-3,7-9H",WQGWDDDVZFFDIG-UHFFFAOYSA-N,?,309.0,100335
100336,87-68-3,87-68-3,ClC(Cl)=C(Cl)C(Cl)=C(Cl)Cl,HEXACHLOROBUTADIENE,"Hexachloro-1,3-butadiene","1,1,2,3,4,4-hexachlorobuta-1,3-diene",19416,DTXSID7020683,ClC(Cl)=C(Cl)C(Cl)=C(Cl)Cl,InChI=1S/C4Cl6/c5-1(3(7)8)2(6)4(9)10,RWNKSTSCBHKHTB-UHFFFAOYSA-N,?,215.0,100336
100337,87-85-4,87-85-4,Cc1c(C)c(C)c(C)c(C)c1C,HEXAMETHYLBENZENE,Hexamethylbenzene,"1,2,3,4,5,6-hexamethylbenzene",19417,DTXSID3058957,Cc1c(C)c(C)c(C)c(C)c1C,InChI=1S/C12H18/c1-7-8(2)10(4)12(6)11(5)9(7)3/h1-6H3,YUWFEBAXEOLKSG-UHFFFAOYSA-N,?,263.4,100337
100339,87-91-2,87-91-2,CCOC(=O)[C@H](O)[C@@H](O)C(=O)OCC,"TARTARIC ACID, DIETHYL ESTER",Diethyl L-tartrate,"diethyl (2R,3R)-2,3-dihydroxysuccinate",19419,DTXSID5052597,CCOC(=O)C(O)C(O)C(=O)OCC,"InChI=1S/C8H14O6/c1-3-13-7(11)5(9)6(10)8(12)14-4-2/h5-6,9-10H,3-4H2,1-2H3",YSAVZVORKRDODB-UHFFFAOYSA-N,?,280.0,100339
100341,88-04-0,88-04-0,Cc1cc(O)cc(C)c1Cl,"4-CHLORO-3,5-DIMETHYL PHENOL","4-Chloro-3,5-dimethylphenol","4-chloro-3,5-dimethylphenol",19420,DTXSID0032316,Cc1cc(O)cc(C)c1Cl,"InChI=1S/C8H9ClO/c1-5-3-7(10)4-6(2)8(5)9/h3-4,10H,1-2H3",OSDLLIBGSJNGJE-UHFFFAOYSA-N,?,246.0,100341
100342,88-05-1,88-05-1,Cc1cc(C)c(N)c(C)c1,"Benzenamine, 2,4,6-trimethyl-","2,4,6-Trimethylaniline","2,4,6-trimethylaniline",19421,DTXSID5043847,Cc1cc(C)c(N)c(C)c1,"InChI=1S/C9H13N/c1-6-4-7(2)9(10)8(3)5-6/h4-5H,10H2,1-3H3",KWVPRPSXBZNOHS-UHFFFAOYSA-N,?,232.5,100342
100344,88-09-5,88-09-5,CCC(CC)C(O)=O,2-ETHYLBUTYRIC ACID,2-Ethylbutyric acid,2-ethylbutanoic acid,19423,DTXSID2041418,CCC(CC)C(O)=O,"InChI=1S/C6H12O2/c1-3-5(4-2)6(7)8/h5H,3-4H2,1-2H3,(H,7,8)",OXQGTIUCKGYOAA-UHFFFAOYSA-N,?,194.0,100344
100345,88-10-8,88-10-8,CCN(CC)C(=O)Cl,"Carbamic chloride, diethyl-",Diethylcarbamoyl chloride,diethylcarbamic chloride,19424,DTXSID0052598,CCN(CC)C(=O)Cl,"InChI=1S/C5H10ClNO/c1-3-7(4-2)5(6)8/h3-4H2,1-2H3",OFCCYDUUBNUJIB-UHFFFAOYSA-N,?,186.0,100345
100346,88-14-2,88-14-2,OC(=O)c1ccco1,2-FURANCARBOXYLIC ACID,2-Furancarboxylic acid,furan-2-carboxylato,19425,DTXSID6041420,OC(=O)c1ccco1,"InChI=1S/C5H4O3/c6-5(7)4-2-1-3-8-4/h1-3H,(H,6,7)",SMNDYUVBFMFKNZ-UHFFFAOYSA-N,?,231.0,100346
100348,88-16-4,88-16-4,FC(F)(F)c1ccccc1Cl,CHLORO(TRIFLUOROMETHYL)BENZENE,2-Chlorobenzotrifluoride,1-chloro-2-(trifluoromethyl)benzene,19427,DTXSID9024774,FC(F)(F)c1ccccc1Cl,"InChI=1S/C7H4ClF3/c8-6-4-2-1-3-5(6)7(9,10)11/h1-4H",DGRVQOKCSKDWIH-UHFFFAOYSA-N,?,152.2,100348
100349,88-17-5,88-17-5,Nc1ccccc1C(F)(F)F,"BENZENAMINE, 2-(TRIFLUOROMETHYL)-",o-(Trifluoromethyl)aniline,2-(Trifluoromethyl)aniline,19428,DTXSID7058961,Nc1ccccc1C(F)(F)F,"InChI=1S/C7H6F3N/c8-7(9,10)5-3-1-2-4-6(5)11/h1-4H,11H2",VBLXCTYLWZJBKA-UHFFFAOYSA-N,?,187.0,100349
100350,88-18-6,88-18-6,CC(C)(C)c1ccccc1O,O-T-BUTYLPHENOL,2-tert-Butylphenol,2-tert-butylphenol,19429,DTXSID2026525,CC(C)(C)c1ccccc1O,"InChI=1S/C10H14O/c1-10(2,3)8-6-4-5-7-9(8)11/h4-7,11H,1-3H3",WJQOZHYUIDYNHM-UHFFFAOYSA-N,?,223.0,100350
100352,88-69-7,88-69-7,CC(C)c1ccccc1O,O-ISOPROPYLPHENOL,2-Isopropylphenol,2-(propan-2-yl)phenol,19431,DTXSID2044391,CC(C)c1ccccc1O,"InChI=1S/C9H12O/c1-7(2)8-5-3-4-6-9(8)10/h3-7,10H,1-2H3",CRBJBYGJVIBWIY-UHFFFAOYSA-N,?,213.5,100352
100353,88-72-2,88-72-2,Cc1ccccc1[N+]([O-])=O,2-NITROTOLUENE,2-Nitrotoluene,1-methyl-2-nitrobenzene,19432,DTXSID4025791,Cc1ccccc1[N+]([O-])=O,"InChI=1S/C7H7NO2/c1-6-4-2-3-5-7(6)8(9)10/h2-5H,1H3",PLAZTCDQAHEYBI-UHFFFAOYSA-N,?,222.0,100353
100354,88-73-3,88-73-3,[O-][N+](=O)c1ccccc1Cl,2-CHLORO-1-NITROBENZENE,1-Chloro-2-nitrobenzene,1-chloro-2-nitrobenzene,19433,DTXSID0020280,[O-][N+](=O)c1ccccc1Cl,InChI=1S/C6H4ClNO2/c7-5-3-1-2-4-6(5)8(9)10/h1-4H,BFCFYVKQTRLZHA-UHFFFAOYSA-N,?,245.5,100354
100356,88-75-5,88-75-5,[O-][N+](=O)c1ccccc1O,2-NITROPHENOL,2-Nitrophenol,2-nitrophenol,19435,DTXSID1021790,[O-][N+](=O)c1ccccc1O,"InChI=1S/C6H5NO3/c8-6-4-2-1-3-5(6)7(9)10/h1-4,8H",IQUPABOKLQSFBK-UHFFFAOYSA-N,?,216.0,100356
100357,88-85-7,88-85-7,CCC(C)c1cc(cc(c1O)[N+]([O-])=O)[N+]([O-])=O,DINOSEB,Dinoseb,"2-(butan-2-yl)-4,6-dinitrophenol",19436,DTXSID3020207,CCC(C)c1cc(cc(c1O)[N+]([O-])=O)[N+]([O-])=O,"InChI=1S/C10H12N2O5/c1-3-6(2)8-4-7(11(14)15)5-9(10(8)13)12(16)17/h4-6,13H,3H2,1-2H3",OWZPCEFYPSAJFR-UHFFFAOYSA-N,?,332.0,100357
100358,88-95-9,88-95-9,O=C(Cl)c1ccccc1C(=O)Cl,PHTHALOYL CHLORIDE,"1,2-Benzenedicarbonyl dichloride","benzene-1,2-dicarbonyl dichloride",19437,DTXSID8038691,O=C(Cl)c1ccccc1C(=O)Cl,InChI=1S/C8H4Cl2O2/c9-7(11)5-3-1-2-4-6(5)8(10)12/h1-4H,FYXKZNLBZKRYSS-UHFFFAOYSA-N,?,281.1,100358