ChemID,source_casrn,CAS,SMILES,NAME,preferred_name,iupac,MPID,dsstox_substance_id,Canonical_QSARr,InChI_Code_QSARr,InChI Key_QSARr,Salt_Solvent,Salt_Solvent_ID,MP,ID
109544,81335-37-7,81335-37-7,CC(C)C1(C)N=C(NC1=O)c1[n]c2ccccc2cc1C(O)=O,Imazaquin,Imazaquin,"2-[4-methyl-5-oxo-4-(propan-2-yl)-4,5-dihydro-1H-imidazol-2-yl]quinoline-3-carboxylic acid",35972,DTXSID3024152,CC(C)C1(C)N=C(NC1=O)c1[n]c2ccccc2cc1C(O)=O,"InChI=1S/C17H17N3O3/c1-9(2)17(3)16(23)19-14(20-17)13-11(15(21)22)8-10-6-4-5-7-12(10)18-13/h4-9H,1-3H3,(H,21,22)(H,19,20,23)",CABMTIJINOIHOD-UHFFFAOYSA-N,?,,221.0,109544
109549,81982-32-3,NOCAS_868635,CNS(=O)(=O)c1cc(c(cc1N)OC)C(=O)NCC1CCCN1CC=C,Alpiropride,,,35976,DTXSID30868635,CNS(=O)(=O)c1cc(c(cc1N)OC)C(=O)NCC1CCCN1CC=C,"InChI=1S/C17H26N4O4S/c1-4-7-21-8-5-6-12(21)11-20-17(22)13-9-16(26(23,24)19-2)14(18)10-15(13)25-3/h4,9-10,12,19H,1,5-8,11,18H2,2-3H3,(H,20,22)",QRQMZZNDJGHPHZ-UHFFFAOYSA-N,?,,168.75,109549
109555,82626-48-0,82626-48-0,CN(C)C(=O)Cc1c([n]c2ccc(C)c[n]21)-c1ccc(C)cc1,Zolpidem,Zolpidem,"N,N-dimethyl-2-[6-methyl-2-(4-methylphenyl)imidazo[1,2-a]pyridin-3-yl]acetamide",35981,DTXSID7045946,CN(C)C(=O)Cc1c([n]c2ccc(C)c[n]21)-c1ccc(C)cc1,"InChI=1S/C19H21N3O/c1-13-5-8-15(9-6-13)19-16(11-18(23)21(3)4)22-12-14(2)7-10-17(22)20-19/h5-10,12H,11H2,1-4H3",ZAFYATHCZYHLPB-UHFFFAOYSA-N,?,,196.0,109555
109559,83121-18-0,83121-18-0,O=C(Nc1cc(Cl)c(F)c(Cl)c1F)NC(=O)c1c(F)cccc1F,TEFLUBENZURON,Teflubenzuron,"N-[(3,5-dichloro-2,4-difluorophenyl)carbamoyl]-2,6-difluorobenzamide",35985,DTXSID6042440,O=C(Nc1cc(Cl)c(F)c(Cl)c1F)NC(=O)c1c(F)cccc1F,"InChI=1S/C14H6Cl2F4N2O2/c15-5-4-8(12(20)10(16)11(5)19)21-14(24)22-13(23)9-6(17)2-1-3-7(9)18/h1-4H,(H2,21,22,23,24)",CJDWRQLODFKPEL-UHFFFAOYSA-N,?,,222.5,109559
109563,83657-17-4|83657-22-1,83657-17-4|83657-22-1,CC(C)(C)[C@H](O)/C(=C\c1ccc(Cl)cc1)/[n]1c[n]c[n]1,"Uniconazole-P, Uniconazole",Uniconazole-P,"(1E,3S)-1-(4-chlorophenyl)-4,4-dimethyl-2-(1H-1,2,4-triazol-1-yl)pent-1-en-3-ol",35989|35990,DTXSID3035002|DTXSID7032505,CC(C)(C)C(O)C(=Cc1ccc(Cl)cc1)[n]1c[n]c[n]1,"InChI=1S/C15H18ClN3O/c1-15(2,3)14(20)13(19-10-17-9-18-19)8-11-4-6-12(16)7-5-11/h4-10,14,20H,1-3H3/b13-8-",YNWVFADWVLCOPU-JYRVWZFOSA-N,?,,153.0,109563
109569,83733-82-8,83733-82-8,CCCC(=O)N(CSP(=S)(OC)OC)c1ccccc1Cl,Phosmethylan,Fosmethilan,"S-{[butyryl(2-chlorophenyl)amino]methyl} O,O-dimethyl phosphorodithioate",35995,DTXSID0058196,CCCC(=O)N(CSP(=S)(OC)OC)c1ccccc1Cl,"InChI=1S/C13H19ClNO3PS2/c1-4-7-13(16)15(10-21-19(20,17-2)18-3)12-9-6-5-8-11(12)14/h5-6,8-9H,4,7,10H2,1-3H3",MVBGKYGTNGPFHT-UHFFFAOYSA-N,?,,42.0,109569
109574,84087-01-4,84087-01-4,OC(=O)c1c2[n]cc(Cl)cc2ccc1Cl,Quinclorac,Quinclorac,"3,7-dichloroquinoline-8-carboxylic acid",35999,DTXSID6032641,OC(=O)c1c2[n]cc(Cl)cc2ccc1Cl,"InChI=1S/C10H5Cl2NO2/c11-6-3-5-1-2-7(12)8(10(14)15)9(5)13-4-6/h1-4H,(H,14,15)",FFSSWMQPCJRCRV-UHFFFAOYSA-N,?,,274.0,109574
109578,84496-56-0,84496-56-0,Cc1c(Cl)c(ccc1Cl)OC(C)C(O)=Nc1ccccc1,CLOMEPROP,Clomeprop,"2-(2,4-dichloro-3-methylphenoxy)-N-phenylpropanamide",36003,DTXSID0058198,Cc1c(Cl)c(ccc1Cl)OC(C)C(O)=Nc1ccccc1,"InChI=1S/C16H15Cl2NO2/c1-10-13(17)8-9-14(15(10)18)21-11(2)16(20)19-12-6-4-3-5-7-12/h3-9,11H,1-2H3,(H,19,20)",BDQWWOHKFDSADC-UHFFFAOYSA-N,?,,146.5,109578
109582,86541-75-5,86541-75-5,CCOC(=O)[C@H](CCc1ccccc1)N[C@H]1CCc2ccccc2N(CC(O)=O)C1=O,Benazepril,Benazepril,"[(3S)-3-{[(2S)-1-ethoxy-1-oxo-4-phenylbutan-2-yl]amino}-2-oxo-2,3,4,5-tetrahydro-1H-1-benzazepin-1-yl]acetic acid",36007,DTXSID5022645,CCOC(=O)C(CCc1ccccc1)NC1CCc2ccccc2N(CC(O)=O)C1=O,"InChI=1S/C24H28N2O5/c1-2-31-24(30)20(14-12-17-8-4-3-5-9-17)25-19-15-13-18-10-6-7-11-21(18)26(23(19)29)16-22(27)28/h3-11,19-20,25H,2,12-16H2,1H3,(H,27,28)",XPCFTKFZXHTYIP-UHFFFAOYSA-N,?,,148.5,109582
109588,87130-20-9,87130-20-9,CC(C)OC(=O)Nc1cc(OCC)c(cc1)OCC,"CARBAMIC ACID, (3,4-DIETHOXYPHENYL)-, 1-METHYLET",Diethofencarb,"propan-2-yl (3,4-diethoxyphenyl)carbamate",36011,DTXSID5037527,CC(C)OC(=O)Nc1cc(OCC)c(cc1)OCC,"InChI=1S/C14H21NO4/c1-5-17-12-8-7-11(9-13(12)18-6-2)15-14(16)19-10(3)4/h7-10H,5-6H2,1-4H3,(H,15,16)",LNJNFVJKDJYTEU-UHFFFAOYSA-N,?,,100.3,109588
109593,87820-88-0,87820-88-0,Cc1cc(C)c(C2CC(O)=C(C(=O)C2)C(CC)=NOCC)c(C)c1,Tralkoxydim,Tralkoxydim,"2-(N-ethoxypropanimidoyl)-3-hydroxy-5-(2,4,6-trimethylphenyl)cyclohex-2-en-1-one",36016,DTXSID1034973,Cc1cc(C)c(C2CC(O)=C(C(=O)C2)C(CC)=NOCC)c(C)c1,"InChI=1S/C20H27NO3/c1-6-16(21-24-7-2)20-17(22)10-15(11-18(20)23)19-13(4)8-12(3)9-14(19)5/h8-9,15,22H,6-7,10-11H2,1-5H3/b21-16+",DQFPEYARZIQXRM-LTGZKZEYSA-N,?,,106.0,109593
109600,90035-08-8,90035-08-8,OC1=C(C2CC(Cc3ccccc32)c2ccc(cc2)OCc2ccc(cc2)C(F)(F)F)C(=O)Oc2ccccc21,Flocoumafen,Flocoumafen,"4-hydroxy-3-[3-(4-{[4-(trifluoromethyl)benzyl]oxy}phenyl)-1,2,3,4-tetrahydronaphthalen-1-yl]-2H-chromen-2-one",36020,DTXSID1058212,OC1=C(C2CC(Cc3ccccc32)c2ccc(cc2)OCc2ccc(cc2)C(F)(F)F)C(=O)Oc2ccccc21,"InChI=1S/C33H25F3O4/c34-33(35,36)24-13-9-20(10-14-24)19-39-25-15-11-21(12-16-25)23-17-22-5-1-2-6-26(22)28(18-23)30-31(37)27-7-3-4-8-29(27)40-32(30)38/h1-16,23,28,37H,17-19H2",KKBGNYHHEIAGOH-UHFFFAOYSA-N,?,,167.2,109600
109606,91431-42-4,91431-42-4,CC(=O)Oc1c(OC)c(OC)c(OC(C)=O)c2cc(Cl)ccc21,"1,4-NAPHTHALENEDIOL, 6-CHLORO-2,3-DIMETHOXY-, DI",Lonapalene,"(4-acetyloxy-7-chloro-2,3-dimethoxynaphthalen-1-yl) acetate",36024,DTXSID00238563,CC(=O)Oc1c(OC)c(OC)c(OC(C)=O)c2cc(Cl)ccc21,"InChI=1S/C16H15ClO6/c1-8(18)22-13-11-6-5-10(17)7-12(11)14(23-9(2)19)16(21-4)15(13)20-3/h5-7H,1-4H3",IFWMVQUGSGWCRP-UHFFFAOYSA-N,?,,91.5,109606
109618,93106-60-6,93106-60-6,CCN1CCN(CC1)c1cc2c(cc1F)C(=O)C(=CN2C1CC1)C(O)=O,Enrofloxacin,Enrofloxacin,"1-cyclopropyl-7-(4-ethylpiperazin-1-yl)-6-fluoro-4-oxo-1,4-dihydroquinoline-3-carboxylic acid",36028,DTXSID1045619,CCN1CCN(CC1)c1cc2c(cc1F)C(=O)C(=CN2C1CC1)C(O)=O,"InChI=1S/C19H22FN3O3/c1-2-21-5-7-22(8-6-21)17-10-16-13(9-15(17)20)18(24)14(19(25)26)11-23(16)12-3-4-12/h9-12H,2-8H2,1H3,(H,25,26)",SPFYMRJSYKOXGV-UHFFFAOYSA-N,?,,220.0,109618
109622,95266-40-3,95266-40-3,CCOC(=O)C1CC(=O)C(=C(O)C2CC2)C(=O)C1,Trinexapac-ethyl,Trinexapac-ethyl,"ethyl 4-[cyclopropyl(hydroxy)methylidene]-3,5-dioxocyclohexanecarboxylate",36032,DTXSID9032535,CCOC(=O)C1CC(=O)C(=C(O)C2CC2)C(=O)C1,"InChI=1S/C13H16O5/c1-2-18-13(17)8-5-9(14)11(10(15)6-8)12(16)7-3-4-7/h7-8,16H,2-6H2,1H3/b12-11-",RVKCCVTVZORVGD-QXMHVHEDSA-N,?,,36.0,109622
109631,96662-64-5,96662-64-5,CC1(C)CC(CC(C)(C)N1[O])NC(=O)NP(=O)(N1CC1)N1CC1 |^1:10|,"1-PIPERIDINYLOXY, 4-[[[[BIS(1-AZIRIDINYL)PHOSPHI","N,N,N',N'-Bis(1,2-ethanediyl)-N''-(1-oxyl-2,2,6,6-tetramethyl-4-piperidinylaminocarbonyl)phosphoric triamide",,36036,DTXSID20242384,CC1(C)CC(CC(C)(C)N1O)NC(=O)NP(=O)(N1CC1)N1CC1,"InChI=1S/C14H28N5O3P/c1-13(2)9-11(10-14(3,4)19(13)21)15-12(20)16-23(22,17-5-6-17)18-7-8-18/h11,21H,5-10H2,1-4H3,(H2,15,16,20,22)",SANXRQNNWCDGGX-UHFFFAOYSA-N,?,,102.5,109631
109637,98079-51-7,98079-51-7,CCN1C=C(C(=O)c2cc(F)c(c(F)c12)N1CCNC(C)C1)C(O)=O,LOMEFLOXACIN,Lomefloxacin,"1-ethyl-6,8-difluoro-7-(3-methylpiperazin-1-yl)-4-oxo-1,4-dihydroquinoline-3-carboxylic acid",36040,DTXSID4040680,CCN1C=C(C(=O)c2cc(F)c(c(F)c12)N1CCNC(C)C1)C(O)=O,"InChI=1S/C17H19F2N3O3/c1-3-21-8-11(17(24)25)16(23)10-6-12(18)15(13(19)14(10)21)22-5-4-20-9(2)7-22/h6,8-9,20H,3-5,7H2,1-2H3,(H,24,25)",ZEKZLJVOYLTDKK-UHFFFAOYSA-N,?,,239.75,109637
109641,98967-40-9,98967-40-9,Cc1cc[n]2[n]c([n]c2[n]1)S(=O)(=O)Nc1c(F)cccc1F,FLUMETSULAM,Flumetsulam,"N-(2,6-difluorophenyl)-5-methyl[1,2,4]triazolo[1,5-a]pyrimidine-2-sulfonamide",36044,DTXSID4032615,Cc1cc[n]2[n]c([n]c2[n]1)S(=O)(=O)Nc1c(F)cccc1F,"InChI=1S/C12H9F2N5O2S/c1-7-5-6-19-11(15-7)16-12(17-19)22(20,21)18-10-8(13)3-2-4-9(10)14/h2-6,18H,1H3",RXCPQSJAVKGONC-UHFFFAOYSA-N,?,,252.0,109641
109649,100784-20-1,100784-20-1,C[n]1[n]c(Cl)c(c1S(=O)(=O)NC(=O)Nc1[n]c(cc([n]1)OC)OC)C(=O)OC,HALOSULFURON-METHYL,Halosulfuron-methyl,"methyl 3-chloro-5-{[(4,6-dimethoxypyrimidin-2-yl)carbamoyl]sulfamoyl}-1-methyl-1H-pyrazole-4-carboxylate",36049,DTXSID9034650,C[n]1[n]c(Cl)c(c1S(=O)(=O)NC(=O)Nc1[n]c(cc([n]1)OC)OC)C(=O)OC,"InChI=1S/C13H15ClN6O7S/c1-20-10(8(9(14)18-20)11(21)27-4)28(23,24)19-13(22)17-12-15-6(25-2)5-7(16-12)26-3/h5H,1-4H3,(H2,15,16,17,19,22)",FMGZEUWROYGLAY-UHFFFAOYSA-N,?,,176.0,109649
109667,101714-96-9,101714-96-9,Ic1cc2Oc3ccccc3Oc2cc1,2-MONOIODODIBENZO-P-DIOXIN,2-Monoiododibenzo-p-dioxin,2-iodooxanthrene,36053,DTXSID40144139,Ic1cc2Oc3ccccc3Oc2cc1,InChI=1S/C12H7IO2/c13-8-5-6-11-12(7-8)15-10-4-2-1-3-9(10)14-11/h1-7H,HFNCLKQJJNAADD-UHFFFAOYSA-N,?,,95.0,109667
109671,103112-35-2,103112-35-2,CCOC(=O)c1[n]c([n]([n]1)-c1ccc(Cl)cc1Cl)C(Cl)(Cl)Cl,FENCHLORAZOLE-ETHYL,Fenchlorazole-ethyl,C12H8Cl5N3O2,36057,DTXSID6041268,CCOC(=O)c1[n]c([n]([n]1)-c1ccc(Cl)cc1Cl)C(Cl)(Cl)Cl,"InChI=1S/C12H8Cl5N3O2/c1-2-22-10(21)9-18-11(12(15,16)17)20(19-9)8-4-3-6(13)5-7(8)14/h3-5H,2H2,1H3",GMBRUAIJEFRHFQ-UHFFFAOYSA-N,?,,110.0,109671
109685,104273-73-6,143294-89-7,OC(=O)C1CC(=O)C(C(=O)C1)=C(O)C1CC1,TRINEXAPAC,PUBCHEM_14371531,C11H12O5,36061,DTXSID90559517,OC(=O)C1CC(=O)C(C(=O)C1)=C(O)C1CC1,"InChI=1S/C11H12O5/c12-7-3-6(11(15)16)4-8(13)9(7)10(14)5-1-2-5/h5-6,14H,1-4H2,(H,15,16)/b10-9-",DFFWZNDCNBOKDI-KTKRTIGZSA-N,?,,144.4,109685
109693,105779-78-0,105779-78-0,Cc1c(ccc(CCOCC)c1C)OCCN=C1NC=NC(CC)=C1Cl,PYRIMIDIFEN,Pyrimidifen,"5-chloro-N-{2-[4-(2-ethoxyethyl)-2,3-dimethylphenoxy]ethyl}-6-ethylpyrimidin-4-amine",36065,DTXSID9057925,Cc1c(ccc(CCOCC)c1C)OCCN=C1NC=NC(CC)=C1Cl,"InChI=1S/C20H28ClN3O2/c1-5-17-19(21)20(24-13-23-17)22-10-12-26-18-8-7-16(9-11-25-6-2)14(3)15(18)4/h7-8,13H,5-6,9-12H2,1-4H3,(H,22,23,24)",ITKAIUGKVKDENI-UHFFFAOYSA-N,?,,70.0,109693
109697,105951-31-3,105951-31-3,NS(=O)(=O)c1cc2c(SCCC2=O)[s]1,"4H-THIENO[2,3-B]THIOPYRAN-2-SULFONAMIDE, 5,6-DIH",PUBCHEM_13763145,C7H7NO3S3,36069,DTXSID50548760,NS(=O)(=O)c1cc2c(SCCC2=O)[s]1,"InChI=1S/C7H7NO3S3/c8-14(10,11)6-3-4-5(9)1-2-12-7(4)13-6/h3H,1-2H2,(H2,8,10,11)",WKLCYOHFTPREOW-UHFFFAOYSA-N,?,,222.0,109697
109705,106231-52-1,NOCAS_872106,CC(C)(C)NC(=O)COC(=O)c1ccccc1,"ACETAMIDE, 2-(BENZOYLOXY)-N-(1,1-DIMETHYLETHYL)-",,,36073,DTXSID80872106,CC(C)(C)NC(=O)COC(=O)c1ccccc1,"InChI=1S/C13H17NO3/c1-13(2,3)14-11(15)9-17-12(16)10-7-5-4-6-8-10/h4-8H,9H2,1-3H3,(H,14,15)",NZNPHIKNHGRVLZ-UHFFFAOYSA-N,?,,112.5,109705
109709,106231-56-5,NOCAS_872108,CC(C)N(C(C)C)C(=O)COC(=O)c1ccccc1,"ACETAMIDE, 2-(BENZOYLOXY)-N,N-BIS(1-METHYLETHYL)",,,36077,DTXSID00872108,CC(C)N(C(C)C)C(=O)COC(=O)c1ccccc1,"InChI=1S/C15H21NO3/c1-11(2)16(12(3)4)14(17)10-19-15(18)13-8-6-5-7-9-13/h5-9,11-12H,10H2,1-4H3",ZWUAUTPCFIIFAS-UHFFFAOYSA-N,?,,105.5,109709
109718,106231-67-8,NOCAS_871480,O=C(COC(=O)c1ccccc1)N1CCCCC1,"PIPERIDINE, 1-[(BENZOYLOXY)ACETYL]-",,,36081,DTXSID10871480,O=C(COC(=O)c1ccccc1)N1CCCCC1,"InChI=1S/C14H17NO3/c16-13(15-9-5-2-6-10-15)11-18-14(17)12-7-3-1-4-8-12/h1,3-4,7-8H,2,5-6,9-11H2",BCNWJNNKUUMDHS-UHFFFAOYSA-N,?,,88.0,109718
109731,106917-52-6,106917-52-6,[O-][N+](=O)c1cc(Cl)c(cc1)NS(=O)(=O)c1cc(c(Cl)cc1)C(F)(F)F,Flusulfamide,Flusulfamide,4-chloro-N-(2-chloro-4-nitrophenyl)-3-(trifluoromethyl)benzenesulfonamide,36085,DTXSID9057929,[O-][N+](=O)c1cc(Cl)c(cc1)NS(=O)(=O)c1cc(c(Cl)cc1)C(F)(F)F,"InChI=1S/C13H7Cl2F3N2O4S/c14-10-3-2-8(6-9(10)13(16,17)18)25(23,24)19-12-4-1-7(20(21)22)5-11(12)15/h1-6,19H",GNVDAZSPJWCIQZ-UHFFFAOYSA-N,?,,170.0,109731
109736,108966-51-4,108966-51-4,NS(=O)(=O)c1ccc(cc1)SCCCO,"BENZENESULFONAMIDE, 4-[(3-HYDROXYPROPYL)THIO]-",PUBCHEM_13960354,C9H13NO3S2,36089,DTXSID30553332,NS(=O)(=O)c1ccc(cc1)SCCCO,"InChI=1S/C9H13NO3S2/c10-15(12,13)9-4-2-8(3-5-9)14-7-1-6-11/h2-5,11H,1,6-7H2,(H2,10,12,13)",BHBPVVOUUXIZBX-UHFFFAOYSA-N,?,,117.0,109736
109740,108966-58-1,108966-58-1,NS(=O)(=O)c1cc(c(cc1)SCCO)[N+]([O-])=O,"BENZENESULFONAMIDE, 4-[(2-HYDROXYETHYL)THIO]-3-N",CHEMBL105730,C8H10N2O5S2,36093,DTXSID50406614,NS(=O)(=O)c1cc(c(cc1)SCCO)[N+]([O-])=O,"InChI=1S/C8H10N2O5S2/c9-17(14,15)6-1-2-8(16-4-3-11)7(5-6)10(12)13/h1-2,5,11H,3-4H2,(H2,9,14,15)",UXGFMDKHLGDQJS-UHFFFAOYSA-N,?,,151.0,109740
109745,108966-70-7,108966-70-7,NS(=O)(=O)c1cc(F)c(cc1)SCCO,"BENZENESULFONAMIDE, 3-FLUORO-4-[(2-HYDROXYETHYL)",PUBCHEM_13960374,C8H10FNO3S2,36097,DTXSID60553340,NS(=O)(=O)c1cc(F)c(cc1)SCCO,"InChI=1S/C8H10FNO3S2/c9-7-5-6(15(10,12)13)1-2-8(7)14-4-3-11/h1-2,5,11H,3-4H2,(H2,10,12,13)",IQXIDCDQCNFSPY-UHFFFAOYSA-N,?,,110.0,109745
109749,108966-76-3,108966-76-3,NS(=O)(=O)c1cc(F)c(cc1)S(=O)(=O)CCO,"BENZENESULFONAMIDE, 3-FLUORO-4-[(2-HYDROXYETHYL)",PUBCHEM_13960378,C8H10FNO5S2,36101,DTXSID00553344,NS(=O)(=O)c1cc(F)c(cc1)S(=O)(=O)CCO,"InChI=1S/C8H10FNO5S2/c9-7-5-6(17(10,14)15)1-2-8(7)16(12,13)4-3-11/h1-2,5,11H,3-4H2,(H2,10,14,15)",IAWYFQRAIGYURV-UHFFFAOYSA-N,?,,165.0,109749
109756,110956-75-7,110956-75-7,CC(C)=C1OC(=O)N(c2cc(OC3CCCC3)c(Cl)cc2F)C1=O,PENTOXAZONE,Pentoxazone,"3-[4-chloro-5-(cyclopentyloxy)-2-fluorophenyl]-5-isopropylidene-1,3-oxazolidine-2,4-dione",36105,DTXSID3057933,CC(C)=C1OC(=O)N(c2cc(OC3CCCC3)c(Cl)cc2F)C1=O,"InChI=1S/C17H17ClFNO4/c1-9(2)15-16(21)20(17(22)24-15)13-8-14(11(18)7-12(13)19)23-10-5-3-4-6-10/h7-8,10H,3-6H2,1-2H3",JZPKLLLUDLHCEL-UHFFFAOYSA-N,?,,104.0,109756
109760,111991-09-4,111991-09-4,CN(C)C(=O)c1ccc[n]c1S(=O)(=O)NC(=O)Nc1[n]c(cc([n]1)OC)OC,Nicosulfuron,Nicosulfuron,"2-{[(4,6-dimethoxypyrimidin-2-yl)carbamoyl]sulfamoyl}-N,N-dimethylpyridine-3-carboxamide",36109,DTXSID6034764,CN(C)C(=O)c1ccc[n]c1S(=O)(=O)NC(=O)Nc1[n]c(cc([n]1)OC)OC,"InChI=1S/C15H18N6O6S/c1-21(2)13(22)9-6-5-7-16-12(9)28(24,25)20-15(23)19-14-17-10(26-3)8-11(18-14)27-4/h5-8H,1-4H3,(H2,17,18,19,20,23)",RTCOGUMHFFWOJV-UHFFFAOYSA-N,?,,142.0,109760
109779,112226-97-8,112226-97-8,CC(C)(C)N(NC(=O)c1ccccc1)C(=O)c1ccc(Cl)cc1Cl,"1-(2,4-DICHLORO),2-DIBENZOYL-1-TERT-BUTYLHYDRAZI","Benzoic acid, 2,4-dichloro-, 2-benzoyl-1-(1,1-dimethylethyl)hydrazide","N'-(benzoyl)-N-tert-butyl-2,4-dichlorobenzohydrazide",36113,DTXSID40149962,CC(C)(C)N(NC(=O)c1ccccc1)C(=O)c1ccc(Cl)cc1Cl,"InChI=1S/C18H18Cl2N2O2/c1-18(2,3)22(21-16(23)12-7-5-4-6-8-12)17(24)14-10-9-13(19)11-15(14)20/h4-11H,1-3H3,(H,21,23)",LJLPDLHRHNGALA-UHFFFAOYSA-N,?,,134.5,109779
109796,112426-79-6,112426-79-6,CC(C)(C)N(NC(=O)c1ccccc1)C(=O)c1cc(C)cc(C)c1,"1-(3,5-DIMETHYL),2-DIBENZOYL-1-TERT-BUTYLHYDRAZI","Benzoic acid, 3,5-dimethyl-, 2-benzoyl-1-(1,1-dimethylethyl)hydrazide","N'-(benzoyl)-N-tert-butyl-3,5-dimethylbenzohydrazide",36117,DTXSID80150037,CC(C)(C)N(NC(=O)c1ccccc1)C(=O)c1cc(C)cc(C)c1,"InChI=1S/C20H24N2O2/c1-14-11-15(2)13-17(12-14)19(24)22(20(3,4)5)21-18(23)16-9-7-6-8-10-16/h6-13H,1-5H3,(H,21,23)",RIQWCSUNJYMQFI-UHFFFAOYSA-N,?,,206.5,109796
109807,114369-43-6,114369-43-6,N#CC(C[n]1c[n]c[n]1)(CCc1ccc(Cl)cc1)c1ccccc1,Fenbuconazole,Fenbuconazole,"4-(4-chlorophenyl)-2-phenyl-2-(1H-1,2,4-triazol-1-ylmethyl)butanenitrile",36121,DTXSID8032548,N#CC(C[n]1c[n]c[n]1)(CCc1ccc(Cl)cc1)c1ccccc1,"InChI=1S/C19H17ClN4/c20-18-8-6-16(7-9-18)10-11-19(12-21,13-24-15-22-14-23-24)17-4-2-1-3-5-17/h1-9,14-15H,10-11,13H2",RQDJADAKIFFEKQ-UHFFFAOYSA-N,?,,125.0,109807
109811,115054-76-7,NOCAS_872163,CCC(C(N)=O)[n]1[n]c2ccccc2[n]1,"2H-BENZOTRIAZOLE-2-ACETAMIDE, ?-ETHYL-",,,36125,DTXSID00872163,CCC(C(N)=O)[n]1[n]c2ccccc2[n]1,"InChI=1S/C10H12N4O/c1-2-9(10(11)15)14-12-7-5-3-4-6-8(7)13-14/h3-6,9H,2H2,1H3,(H2,11,15)",HWCDCYYAEUYPRB-UHFFFAOYSA-N,?,,127.5,109811
109818,115054-85-8,NOCAS_872169,CC(C)(C(N)=O)[n]1[n]c2ccccc2[n]1,"2H-BENZOTRIAZOLE-2-ACETAMIDE, ?,?-DIMETHYL-",,,36129,DTXSID60872169,CC(C)(C(N)=O)[n]1[n]c2ccccc2[n]1,"InChI=1S/C10H12N4O/c1-10(2,9(11)15)14-12-7-5-3-4-6-8(7)13-14/h3-6H,1-2H3,(H2,11,15)",MQWOMZWQZMTISU-UHFFFAOYSA-N,?,,173.5,109818
109822,115054-91-6,NOCAS_872173,CC(CCC(O)=O)[n]1[n][n]c2ccccc12,"PENTANOIC ACID, 4-(1H-BENZOTRIAZOL-1-YL)-",,,36133,DTXSID50872173,CC(CCC(O)=O)[n]1[n][n]c2ccccc12,"InChI=1S/C11H13N3O2/c1-8(6-7-11(15)16)14-10-5-3-2-4-9(10)12-13-14/h2-5,8H,6-7H2,1H3,(H,15,16)",FJVUEWJLHWNLOD-UHFFFAOYSA-N,?,,86.0,109822
109831,115178-70-6,NOCAS_871488,CC1CCCC(C)N1C(=O)COC(=O)c1ccccc1,"PIPERIDINE, 1-[(BENZOYLOXY)ACETYL]-2,6-DIMETHYL-",,,36137,DTXSID90871488,CC1CCCC(C)N1C(=O)COC(=O)c1ccccc1,"InChI=1S/C16H21NO3/c1-12-7-6-8-13(2)17(12)15(18)11-20-16(19)14-9-4-3-5-10-14/h3-5,9-10,12-13H,6-8,11H2,1-2H3",WJUSVIUZCYELMK-UHFFFAOYSA-N,?,,118.0,109831
109836,115178-78-4,NOCAS_871491,CN(C)C(=O)CCCOC(=O)c1ccccc1,"BUTANAMIDE, 4-(BENZOYLOXY)-N,N-DIMETHYL-",,,36141,DTXSID20871491,CN(C)C(=O)CCCOC(=O)c1ccccc1,"InChI=1S/C13H17NO3/c1-14(2)12(15)9-6-10-17-13(16)11-7-4-3-5-8-11/h3-5,7-8H,6,9-10H2,1-2H3",FNROXVCRPXYLRT-UHFFFAOYSA-N,?,,40.5,109836
109841,115193-29-8,NOCAS_871493,CCCCCCNC(=O)COC(=O)c1ccccc1,"ACETAMIDE, 2-(BENZOYLOXY)-N-HEXYL-",,,36145,DTXSID40871493,CCCCCCNC(=O)COC(=O)c1ccccc1,"InChI=1S/C15H21NO3/c1-2-3-4-8-11-16-14(17)12-19-15(18)13-9-6-5-7-10-13/h5-7,9-10H,2-4,8,11-12H2,1H3,(H,16,17)",ZTEWWPFYEDRRRL-UHFFFAOYSA-N,?,,130.5,109841
109849,115201-45-1,115201-45-1,Clc1ccc(C[n]2c[n]c[n]2)cc1Cl,"1,2,4-Triazole,1-(3,4-dichlorobenzyl)-",PUBCHEM_23273935,C9H7Cl2N3,36149,DTXSID80632242,Clc1ccc(C[n]2c[n]c[n]2)cc1Cl,"InChI=1S/C9H7Cl2N3/c10-8-2-1-7(3-9(8)11)4-14-6-12-5-13-14/h1-3,5-6H,4H2",ZROKMGPXVOUISG-UHFFFAOYSA-N,?,,46.5,109849
109860,117337-19-6,117337-19-6,COC(=O)CSc1cc(/N=C2\SC(=O)N3CCCCN3\2)c(F)cc1Cl,Fluthiacet-methyl,Fluthiacet-methyl,"methyl ({2-chloro-4-fluoro-5-[(Z)-(3-oxotetrahydro[1,3,4]thiadiazolo[3,4-a]pyridazin-1-ylidene)amino]phenyl}sulfanyl)acetate",36153,DTXSID2032556,COC(=O)CSc1cc(N=C2SC(=O)N3CCCCN32)c(F)cc1Cl,"InChI=1S/C15H15ClFN3O3S2/c1-23-13(21)8-24-12-7-11(10(17)6-9(12)16)18-14-19-4-2-3-5-20(19)15(22)25-14/h6-7H,2-5,8H2,1H3/b18-14-",ZCNQYNHDVRPZIH-JXAWBTAJSA-N,?,,106.0,109860
109871,118976-97-9,118976-97-9,COc1ccc(cc1)C(=O)c1cc([s]c1)S(N)(=O)=O,"2-THIOPHENESULFONAMIDE, 4-(4-METHOXYBENZOYL)-",PUBCHEM_14639069,C12H11NO4S2,36157,DTXSID10562447,COc1ccc(cc1)C(=O)c1cc([s]c1)S(N)(=O)=O,"InChI=1S/C12H11NO4S2/c1-17-10-4-2-8(3-5-10)12(14)9-6-11(18-7-9)19(13,15)16/h2-7H,1H3,(H2,13,15,16)",CNGDZXAWOIPFFX-UHFFFAOYSA-N,?,,174.0,109871
109875,119126-15-7,119126-15-7,NC(=O)c1[n][n](-c2cc(COCC(F)(F)C(F)(F)F)c(Cl)cc2)c([n]1)-c1ccccc1,Flupoxam,Flupoxam,"1-{4-chloro-3-[(2,2,3,3,3-pentafluoropropoxy)methyl]phenyl}-5-phenyl-1H-1,2,4-triazole-3-carboxamide",36161,DTXSID7057943,NC(=O)c1[n][n](-c2cc(COCC(F)(F)C(F)(F)F)c(Cl)cc2)c([n]1)-c1ccccc1,"InChI=1S/C19H14ClF5N4O2/c20-14-7-6-13(8-12(14)9-31-10-18(21,22)19(23,24)25)29-17(11-4-2-1-3-5-11)27-16(28-29)15(26)30/h1-8H,9-10H2,(H2,26,30)",AOQMRUTZEYVDIL-UHFFFAOYSA-N,?,,146.0,109875
109880,120068-37-3,120068-37-3,Nc1c(c(C#N)[n][n]1-c1c(Cl)cc(cc1Cl)C(F)(F)F)S(=O)C(F)(F)F,Fipronil,Fipronil,"5-amino-1-[2,6-dichloro-4-(trifluoromethyl)phenyl]-4-[(trifluoromethyl)sulfinyl]-1H-pyrazole-3-carbonitrile",36165,DTXSID4034609,Nc1c(c(C#N)[n][n]1-c1c(Cl)cc(cc1Cl)C(F)(F)F)S(=O)C(F)(F)F,"InChI=1S/C12H4Cl2F6N4OS/c13-5-1-4(11(15,16)17)2-6(14)8(5)24-10(22)9(7(3-21)23-24)26(25)12(18,19)20/h1-2H,22H2",ZOCSXAVNDGMNBV-UHFFFAOYSA-N,?,,200.5,109880
109885,120928-09-8,120928-09-8,CC(C)(C)c1ccc(CCOc2[n]c[n]c3ccccc32)cc1,FENAZAQUIN,Fenazaquin,4-[2-(4-tert-butylphenyl)ethoxy]quinazoline,36169,DTXSID4040476,CC(C)(C)c1ccc(CCOc2[n]c[n]c3ccccc32)cc1,"InChI=1S/C20H22N2O/c1-20(2,3)16-10-8-15(9-11-16)12-13-23-19-17-6-4-5-7-18(17)21-14-22-19/h4-11,14H,12-13H2,1-3H3",DMYHGDXADUDKCQ-UHFFFAOYSA-N,?,,78.5,109885
109892,122453-73-0,122453-73-0,CCOC[n]1c(c(C#N)c(Br)c1C(F)(F)F)-c1ccc(Cl)cc1,CHLORFENPYR,Chlorfenapyr,4-bromo-2-(4-chlorophenyl)-1-(ethoxymethyl)-5-(trifluoromethyl)-1H-pyrrole-3-carbonitrile,36173,DTXSID9032533,CCOC[n]1c(c(C#N)c(Br)c1C(F)(F)F)-c1ccc(Cl)cc1,"InChI=1S/C15H11BrClF3N2O/c1-2-23-8-22-13(9-3-5-10(17)6-4-9)11(7-21)12(16)14(22)15(18,19)20/h3-6H,2,8H2,1H3",CWFOCCVIPCEQCK-UHFFFAOYSA-N,?,,100.5,109892
109896,123342-93-8,123342-93-8,COc1cc([n]c([n]1)Sc1cccc(Cl)c1C(O)=O)OC,Pyrithiobac,Pyrithiobac,"2-chloro-6-[(4,6-dimethoxypyrimidin-2-yl)sulfanyl]benzoic acid",36177,DTXSID3037703,COc1cc([n]c([n]1)Sc1cccc(Cl)c1C(O)=O)OC,"InChI=1S/C13H11ClN2O4S/c1-19-9-6-10(20-2)16-13(15-9)21-8-5-3-4-7(14)11(8)12(17)18/h3-6H,1-2H3,(H,17,18)",QEGVVEOAVNHRAA-UHFFFAOYSA-N,?,,149.5,109896