ChemID,source_casrn,CAS,SMILES,NAME,preferred_name,iupac,MPID,dsstox_substance_id,Canonical_QSARr,InChI_Code_QSARr,InChI Key_QSARr,Salt_Solvent,Salt_Solvent_ID,MP,ID
101048,89-87-2,89-87-2,Cc1cc(C)c(cc1)[N+]([O-])=O,4-NITRO-M-XYLENE,"1,3-Dimethyl-4-nitrobenzene","2,4-dimethyl-1-nitrobenzene",28351,DTXSID2025135,Cc1cc(C)c(cc1)[N+]([O-])=O,"InChI=1S/C8H9NO2/c1-6-3-4-8(9(10)11)7(2)5-6/h3-5H,1-2H3",BBUPBICWUURTNP-UHFFFAOYSA-N,?,,9.0,101048
101049,89-92-9,NOCAS_870422,Cc1ccccc1CBr,"BENZENE, 1-(BROMOMETHYL)-2-METHYL-",,,28352,DTXSID00870422,Cc1ccccc1CBr,"InChI=1S/C8H9Br/c1-7-4-2-3-5-8(7)6-9/h2-5H,6H2,1H3",WGVYCXYGPNNUQA-UHFFFAOYSA-N,?,,21.0,101049
101050,89-93-0,89-93-0,Cc1ccccc1CN,"Benzenemethanamine, 2-methyl-","Benzenemethanamine, 2-methyl-",(2-methylphenyl)methanamine,28353,DTXSID3059000,Cc1ccccc1CN,"InChI=1S/C8H11N/c1-7-4-2-3-5-8(7)6-9/h2-5H,6,9H2,1H3",CJAAPVQEZPAQNI-UHFFFAOYSA-N,?,,-30.0,101050
101052,89-96-3,89-96-3,CCc1ccccc1Cl,"BENZENE, 1-CHLORO-2-ETHYL-","Benzene, 1-chloro-2-ethyl-",1-Chloro-2-ethylbenzene,28355,DTXSID40237474,CCc1ccccc1Cl,"InChI=1S/C8H9Cl/c1-2-7-5-3-4-6-8(7)9/h3-6H,2H2,1H3",CVGAWKYSRYXQOI-UHFFFAOYSA-N,?,,-82.7,101052
101053,89-98-5,89-98-5,O=Cc1ccccc1Cl,2-CHLOROBENZALDEHYDE,2-Chlorobenzaldehyde,2-chlorobenzaldehyde,28356,DTXSID5024764,O=Cc1ccccc1Cl,InChI=1S/C7H5ClO/c8-7-4-2-1-3-6(7)5-9/h1-5H,FPYUJUBAXZAQNL-UHFFFAOYSA-N,?,,12.4,101053
101054,90-00-6,90-00-6,CCc1ccccc1O,O-ETHYLPHENOL,2-Ethylphenol,2-ethylphenol,28357,DTXSID1022479,CCc1ccccc1O,"InChI=1S/C8H10O/c1-2-7-5-3-4-6-8(7)9/h3-6,9H,2H2,1H3",IXQGCWUGDFDQMF-UHFFFAOYSA-N,?,,18.0,101054
101056,90-02-8,90-02-8,Oc1ccccc1C=O,O-HYDROXYBENZALDEHYDE,Salicylaldehyde,2-hydroxybenzaldehyde,28359,DTXSID1021792,Oc1ccccc1C=O,"InChI=1S/C7H6O2/c8-5-6-3-1-2-4-7(6)9/h1-5,9H",SMQUZDBALVYZAC-UHFFFAOYSA-N,?,,-7.0,101056
101058,90-04-0,90-04-0,COc1ccccc1N,2-METHOXYANILINE,2-Anisidine,2-methoxyaniline,28360,DTXSID5023877,COc1ccccc1N,"InChI=1S/C7H9NO/c1-9-7-5-3-2-4-6(7)8/h2-5H,8H2,1H3",VMPITZXILSNTON-UHFFFAOYSA-N,?,,6.2,101058
101059,90-05-1,90-05-1,COc1ccccc1O,2-METHOXYPHENOL,2-Methoxyphenol,2-methoxyphenol,28361,DTXSID0023113,COc1ccccc1O,"InChI=1S/C7H8O2/c1-9-7-5-3-2-4-6(7)8/h2-5,8H,1H3",LHGVFZTZFXWLCP-UHFFFAOYSA-N,?,,32.0,101059
101061,90-12-0,90-12-0,Cc1cccc2ccccc21,1-METHYLNAPHTHALENE,1-Methylnaphthalene,1-methylnaphthalene,28363,DTXSID9020877,Cc1cccc2ccccc21,"InChI=1S/C11H10/c1-9-5-4-7-10-6-2-3-8-11(9)10/h2-8H,1H3",QPUYECUOLPXSFR-UHFFFAOYSA-N,?,,-30.4,101061
101062,90-13-1,90-13-1,Clc1cccc2ccccc21,1-CHLORONAPHTHALENE,1-Chloronaphthalene,1-chloronaphthalene,28364,DTXSID2024791,Clc1cccc2ccccc21,InChI=1S/C10H7Cl/c11-10-7-3-5-8-4-1-2-6-9(8)10/h1-7H,JTPNRXUCIXHOKM-UHFFFAOYSA-N,?,,-2.5,101062
101063,90-14-2,90-14-2,Ic1cccc2ccccc21,1-IODONAPHTHALENE,"Naphthalene, 1-iodo-",1-Iodonaphthalene,28365,DTXSID3059004,Ic1cccc2ccccc21,InChI=1S/C10H7I/c11-10-7-3-5-8-4-1-2-6-9(8)10/h1-7H,NHPPIJMARIVBGU-UHFFFAOYSA-N,?,,4.2,101063
101065,90-16-4,90-16-4,O=C1N=NNc2ccccc21,"1,2,3-BENZOTRIAZIN-4(1H)-ONE","1,2,3-Benzotriazin-4(1H)-one","1,2,3-benzotriazin-4(1H)-one",28367,DTXSID5026544,O=C1N=NNc2ccccc21,"InChI=1S/C7H5N3O/c11-7-5-3-1-2-4-6(5)8-10-9-7/h1-4H,(H,8,9,11)",DMSSTTLDFWKBSX-UHFFFAOYSA-N,?,,217.0,101065
101066,90-17-5,90-17-5,CC(=O)OC(c1ccccc1)C(Cl)(Cl)Cl,"Benzenemethanol, alpha-(trichloromethyl)-, aceta","2,2,2-Trichloro-1-phenylethyl acetate","2,2,2-trichloro-1-phenylethyl acetate",28368,DTXSID2047725,CC(=O)OC(c1ccccc1)C(Cl)(Cl)Cl,"InChI=1S/C10H9Cl3O2/c1-7(14)15-9(10(11,12)13)8-5-3-2-4-6-8/h2-6,9H,1H3",JKRWZLOCPLZZEI-UHFFFAOYSA-N,?,,87.5,101066
101067,90-19-7,90-19-7,COc1cc(O)c2c(c1)OC(=C(O)C2=O)c1ccc(O)c(O)c1,Rhammnetin,Rhamnetin,"2-(3,4-dihydroxyphenyl)-3,5-dihydroxy-7-methoxychromen-4-one",28369,DTXSID40237979,COc1cc(O)c2c(c1)OC(=C(O)C2=O)c1ccc(O)c(O)c1,"InChI=1S/C16H12O7/c1-22-8-5-11(19)13-12(6-8)23-16(15(21)14(13)20)7-2-3-9(17)10(18)4-7/h2-6,17-19,21H,1H3",JGUZGNYPMHHYRK-UHFFFAOYSA-N,?,,295.0,101067
101069,90-24-4,90-24-4,CC(=O)c1c(O)cc(cc1OC)OC,Xanthoxylin,Xanthoxyline,"1-(2-hydroxy-4,6-dimethoxyphenyl)ethanone",28371,DTXSID10237981,CC(=O)c1c(O)cc(cc1OC)OC,"InChI=1S/C10H12O4/c1-6(11)10-8(12)4-7(13-2)5-9(10)14-3/h4-5,12H,1-3H3",FBUBVLUPUDBFME-UHFFFAOYSA-N,?,,82.0,101069
101070,90-26-6,NOCAS_870423,CCC(C(N)=O)c1ccccc1,"BENZENEACETAMIDE, .ALPHA.-ETHYL-",,,28372,DTXSID60870423,CCC(C(N)=O)c1ccccc1,"InChI=1S/C10H13NO/c1-2-9(10(11)12)8-6-4-3-5-7-8/h3-7,9H,2H2,1H3,(H2,11,12)",UNFGQCCHVMMMRF-UHFFFAOYSA-N,?,,86.0,101070
101071,90-27-7,938-79-4,CC[C@@H](C(O)=O)c1ccccc1,"Benzeneacetic acid, .alpha.-ethyl-",(R)-(-)-2-Phenylbutyric acid,C10H12O2,28373,DTXSID50354863,CCC(C(O)=O)c1ccccc1,"InChI=1S/C10H12O2/c1-2-9(10(11)12)8-6-4-3-5-7-8/h3-7,9H,2H2,1H3,(H,11,12)",OFJWFSNDPCAWDK-UHFFFAOYSA-N,?,,47.5,101071
101073,90-33-5,90-33-5,CC1=CC(=O)Oc2cc(O)ccc21,7-HYDROXY-4-METHYLCOUMARIN,4-Methylumbelliferone,7-hydroxy-4-methyl-2H-chromen-2-one,28375,DTXSID8025670,CC1=CC(=O)Oc2cc(O)ccc21,"InChI=1S/C10H8O3/c1-6-4-10(12)13-9-5-7(11)2-3-8(6)9/h2-5,11H,1H3",HSHNITRMYYLLCV-UHFFFAOYSA-N,?,,195.5,101073
101074,90-39-1,90-39-1,C1[C@@H]2C[C@@H](CN3CCCC[C@@H]32)[C@@H]2CCCCN21,L-SPARTEINE,Sparteine,sparteine,28376,DTXSID4023591,C1C2CC(CN3CCCCC32)C2CCCCN21,"InChI=1S/C15H26N2/c1-3-7-16-11-13-9-12(14(16)5-1)10-17-8-4-2-6-15(13)17/h12-15H,1-11H2",SLRCCWJSBJZJBV-UHFFFAOYSA-N,?,,30.5,101074
101075,90-41-5,90-41-5,Nc1ccccc1-c1ccccc1,2-AMINOBIPHENYL,2-Biphenylamine,biphenyl-2-amine,28377,DTXSID3030189,Nc1ccccc1-c1ccccc1,"InChI=1S/C12H11N/c13-12-9-5-4-8-11(12)10-6-2-1-3-7-10/h1-9H,13H2",TWBPWBPGNQWFSJ-UHFFFAOYSA-N,?,,51.0,101075
101077,90-43-7,90-43-7,Oc1ccccc1-c1ccccc1,2-PHENYLPHENOL,2-Phenylphenol,biphenyl-2-ol,28379,DTXSID2021151,Oc1ccccc1-c1ccccc1,"InChI=1S/C12H10O/c13-12-9-5-4-8-11(12)10-6-2-1-3-7-10/h1-9,13H",LLEMOWNGBBNAJR-UHFFFAOYSA-N,?,,59.0,101077
101078,90-44-8,90-44-8,O=C1c2ccccc2Cc2ccccc21,9(10H)-ANTHRACENONE,Anthrone,anthracen-9(10H)-one,28380,DTXSID1049431,O=C1c2ccccc2Cc2ccccc21,"InChI=1S/C14H10O/c15-14-12-7-3-1-5-10(12)9-11-6-2-4-8-13(11)14/h1-8H,9H2",RJGDLRCDCYRQOQ-UHFFFAOYSA-N,?,,155.0,101078
101079,90-45-9,90-45-9,Nc1c2ccccc2[n]c2ccccc21,9-AMINOACRIDINE,9-Aminoacridine,acridin-9-amine,28381,DTXSID2024456,Nc1c2ccccc2[n]c2ccccc21,"InChI=1S/C13H10N2/c14-13-9-5-1-3-7-11(9)15-12-8-4-2-6-10(12)13/h1-8H,(H2,14,15)",XJGFWWJLMVZSIG-UHFFFAOYSA-N,?,,241.0,101079
101081,90-47-1,90-47-1,O=C1c2ccccc2Oc2ccccc21,9H-XANTHEN-9-ONE,Xanthone,9H-xanthen-9-one,28383,DTXSID6021795,O=C1c2ccccc2Oc2ccccc21,InChI=1S/C13H8O2/c14-13-9-5-1-3-7-11(9)15-12-8-4-2-6-10(12)13/h1-8H,JNELGWHKGNBSMD-UHFFFAOYSA-N,?,,174.0,101081
101082,90-49-3,90-49-3,CCC(c1ccccc1)C(=O)NC(N)=O,Pheneturide,Ethylphenylacetylurea,N-carbamoyl-2-phenylbutanamide,28384,DTXSID4020612,CCC(c1ccccc1)C(=O)NC(N)=O,"InChI=1S/C11H14N2O2/c1-2-9(10(14)13-11(12)15)8-6-4-3-5-7-8/h3-7,9H,2H2,1H3,(H3,12,13,14,15)",AJOQSQHYDOFIOX-UHFFFAOYSA-N,?,,162.0,101082
101083,90-50-6,90-50-6,COc1c(cc(cc1OC)C=CC(O)=O)OC,"3,4,5-Trimethoxycinnamic acid","2-Propenoic acid, 3-(3,4,5-trimethoxyphenyl)-",,28385,DTXSID7059010,COc1c(cc(cc1OC)C=CC(O)=O)OC,"InChI=1S/C12H14O5/c1-15-9-6-8(4-5-11(13)14)7-10(16-2)12(9)17-3/h4-7H,1-3H3,(H,13,14)/b5-4+",YTFVRYKNXDADBI-SNAWJCMRSA-N,?,,127.0,101083
101085,90-64-2|611-71-2|611-72-3|17199-29-0,90-64-2|611-71-2,OC(=O)C(O)c1ccccc1,"A-HYDROXYPHENYLACETIC ACID, BENZENEACETIC ACID, .alpha.-HYDROXY-, (R)-, dl-Mandelic acid, Benzeneacetic acid, .alpha.-hydroxy-, (S)-",Mandelic acid,hydroxy(phenyl)acetic acid,28387|31661|31662|35032,DTXSID6023234|DTXSID4046523,OC(=O)C(O)c1ccccc1,"InChI=1S/C8H8O3/c9-7(8(10)11)6-4-2-1-3-5-6/h1-5,7,9H,(H,10,11)",IWYDHOAUDWTVEP-UHFFFAOYSA-N,?,,123.5,101085
101086,90-65-3,90-65-3,CC(=C)C(=O)C(=CC(O)=O)OC,PENICILLIC ACID,Penicillic acid,,28388,DTXSID1074830,CC(=C)C(=O)C(=CC(O)=O)OC,"InChI=1S/C8H10O4/c1-5(2)8(11)6(12-3)4-7(9)10/h4H,1H2,2-3H3,(H,9,10)/b6-4+",VOUGEZYPVGAPBB-GQCTYLIASA-N,?,,83.0,101086
101087,90-69-7,90-69-7,CN1[C@@H](CC(=O)c2ccccc2)CCC[C@H]1C[C@H](O)c1ccccc1,LOBELINE,Lobeline,"2-{(2R,6S)-6-[(2S)-2-hydroxy-2-phenylethyl]-1-methylpiperidin-2-yl}-1-phenylethanone",28389,DTXSID3023219,CN1C(CC(=O)c2ccccc2)CCCC1CC(O)c1ccccc1,"InChI=1S/C22H27NO2/c1-23-19(15-21(24)17-9-4-2-5-10-17)13-8-14-20(23)16-22(25)18-11-6-3-7-12-18/h2-7,9-12,19-21,24H,8,13-16H2,1H3",MXYUKLILVYORSK-UHFFFAOYSA-N,?,,130.5,101087
101089,90-75-5,90-75-5,O[C@@H]1O[C@H](COC(=O)c2ccccc2)[C@@H](O)[C@H](O)[C@H]1O,Vacciniin,,,28391,DTXSID80877232,OC1OC(COC(=O)c2ccccc2)C(O)C(O)C1O,"InChI=1S/C13H16O7/c14-9-8(20-13(18)11(16)10(9)15)6-19-12(17)7-4-2-1-3-5-7/h1-5,8-11,13-16,18H,6H2",MRDRXKCKIMVUHN-UHFFFAOYSA-N,?,,121.0,101089
101091,90-82-4|299-42-3|321-97-1,90-82-4|299-42-3|321-97-1,C[C@H](NC)[C@@H](O)c1ccccc1,"d-Pseudoephedrine, (1R,2S)-(-)-EPHEDRINE, Pseudoephedrine, (-)-",Pseudoephedrine,"(1S,2S)-2-(methylamino)-1-phenylpropan-1-ol",28392|30084|30154,DTXSID0023537|DTXSID0022985|DTXSID90185895,CC(NC)C(O)c1ccccc1,"InChI=1S/C10H15NO/c1-8(11-2)10(12)9-6-4-3-5-7-9/h3-8,10-12H,1-2H3",KWGRBVOPPLSCSI-UHFFFAOYSA-N,?,,90.5,101091
101092,90-86-8,90-86-8,CC(C(O)c1ccccc1)N(C)C/C=C/c1ccccc1,Cinnamedrine,Cinnamedrine,2-{methyl[(2E)-3-phenylprop-2-en-1-yl]amino}-1-phenylpropan-1-ol,28393,DTXSID8057851,CC(C(O)c1ccccc1)N(C)CC=Cc1ccccc1,"InChI=1S/C19H23NO/c1-16(19(21)18-13-7-4-8-14-18)20(2)15-9-12-17-10-5-3-6-11-17/h3-14,16,19,21H,15H2,1-2H3/b12-9+",YMJMZFPZRVMNCH-FMIVXFBMSA-N,?,,75.0,101092
101094,90-90-4,90-90-4,O=C(c1ccccc1)c1ccc(Br)cc1,"METHANONE, (4-BROMOPHENYL)PHENYL-",4-Bromobenzophenone,(4-bromophenyl)-phenylmethanone,28395,DTXSID0075366,O=C(c1ccccc1)c1ccc(Br)cc1,InChI=1S/C13H9BrO/c14-12-8-6-11(7-9-12)13(15)10-4-2-1-3-5-10/h1-9H,KEOLYBMGRQYQTN-UHFFFAOYSA-N,?,,82.5,101094
101095,90-94-8,90-94-8,CN(C)c1ccc(cc1)C(=O)c1ccc(cc1)N(C)C,"4,4-BIS(DIMETHYLAMINO)BENZOPHENONE",Michler's ketone,bis[4-(dimethylamino)phenyl]methanone,28396,DTXSID2020894,CN(C)c1ccc(cc1)C(=O)c1ccc(cc1)N(C)C,"InChI=1S/C17H20N2O/c1-18(2)15-9-5-13(6-10-15)17(20)14-7-11-16(12-8-14)19(3)4/h5-12H,1-4H3",VVBLNCFGVYUYGU-UHFFFAOYSA-N,?,,179.0,101095
101096,90-98-2,90-98-2,O=C(c1ccc(Cl)cc1)c1ccc(Cl)cc1,"Methanone, bis(4-chlorophenyl)-","4,4'-Dichlorobenzophenone",bis(4-chlorophenyl)methanone,28397,DTXSID3037626,O=C(c1ccc(Cl)cc1)c1ccc(Cl)cc1,InChI=1S/C13H8Cl2O/c14-11-5-1-9(2-6-11)13(16)10-3-7-12(15)8-4-10/h1-8H,OKISUZLXOYGIFP-UHFFFAOYSA-N,?,,147.5,101096
101098,91-00-9,91-00-9,NC(c1ccccc1)c1ccccc1,Benzhydrylamin,Benzhydrylamine,di(phenyl)methanamine,28399,DTXSID00238346,NC(c1ccccc1)c1ccccc1,"InChI=1S/C13H13N/c14-13(11-7-3-1-4-8-11)12-9-5-2-6-10-12/h1-10,13H,14H2",MGHPNCMVUAKAIE-UHFFFAOYSA-N,?,,34.0,101098
101099,91-01-0,91-01-0,OC(c1ccccc1)c1ccccc1,BENZHYDROL,Diphenylmethanol,C13H12O,28400,DTXSID2059015,OC(c1ccccc1)c1ccccc1,"InChI=1S/C13H12O/c14-13(11-7-3-1-4-8-11)12-9-5-2-6-10-12/h1-10,13-14H",QILSFLSDHQAZET-UHFFFAOYSA-N,?,,69.0,101099
101100,91-02-1,91-02-1,O=C(c1cccc[n]1)c1ccccc1,PHENYL-A-PYRIDYLKETONE,"Methanone, phenyl-2-pyridinyl-",phenyl-pyridin-2-ylmethanone,28401,DTXSID7059016,O=C(c1cccc[n]1)c1ccccc1,InChI=1S/C12H9NO/c14-12(10-6-2-1-3-7-10)11-8-4-5-9-13-11/h1-9H,GCSHUYKULREZSJ-UHFFFAOYSA-N,?,,42.0,101100
101102,91-08-7,91-08-7,Cc1c(cccc1N=C=O)N=C=O,"TOLUENE-2,6-DIISOCYANATE","Toluene-2,6-diisocyanate","1,3-diisocyanato-2-methylbenzene",28403,DTXSID2026157,Cc1c(cccc1N=C=O)N=C=O,"InChI=1S/C9H6N2O2/c1-7-8(10-5-12)3-2-4-9(7)11-6-13/h2-4H,1H3",RUELTTOHQODFPA-UHFFFAOYSA-N,?,,18.3,101102
101103,91-10-1,91-10-1,COc1cccc(OC)c1O,"2,6-Dimethoxyphenol","2,6-Dimethoxyphenol","2,6-dimethoxyphenol",28404,DTXSID2052607,COc1cccc(OC)c1O,"InChI=1S/C8H10O3/c1-10-6-4-3-5-7(11-2)8(6)9/h3-5,9H,1-2H3",KLIDCXVFHGNTTM-UHFFFAOYSA-N,?,,56.5,101103
101104,91-13-4,91-13-4,BrCc1ccccc1CBr,"Benzene, 1,2-bis(bromomethyl)-","Benzene, 1,2-bis(bromomethyl)-","1,2-Bis(bromomethyl)benzene",28405,DTXSID2059019,BrCc1ccccc1CBr,"InChI=1S/C8H8Br2/c9-5-7-3-1-2-4-8(7)6-10/h1-4H,5-6H2",KGKAYWMGPDWLQZ-UHFFFAOYSA-N,?,,95.0,101104
101106,91-16-7,91-16-7,COc1ccccc1OC,"1,2-DIMETHOXYBENZENE","1,2-Dimethoxybenzene","1,2-dimethoxybenzene",28407,DTXSID7047065,COc1ccccc1OC,"InChI=1S/C8H10O2/c1-9-7-5-3-4-6-8(7)10-2/h3-6H,1-2H3",ABDKAPXRBAPSQN-UHFFFAOYSA-N,?,,22.5,101106
101107,91-17-8|493-01-6|493-02-7,91-17-8,C1CCCC2CCCCC21,"DECAHYDRONAPHTHALENE, CIS-BICYCLO[4.4.0]DECANE, TRANS-BICYCLO[4.4.0]DECANE",Decalin,decahydronaphthalene,28408|30636|30637,DTXSID1024912,C1CCCC2CCCCC21,"InChI=1S/C10H18/c1-2-6-10-8-4-3-7-9(10)5-1/h9-10H,1-8H2",NNBZCPXTIHJBJL-UHFFFAOYSA-N,?,,-38.7333333333,101107
101108,91-18-9,91-18-9,c1[n]c[n]c2[n]cc[n]c21,PTERIDINE,Pteridine,Pteridine,28409,DTXSID60238347,c1[n]c[n]c2[n]cc[n]c21,InChI=1S/C6H4N4/c1-2-9-6-5(8-1)3-7-4-10-6/h1-4H,CPNGPNLZQNNVQM-UHFFFAOYSA-N,?,,139.5,101108
101110,91-20-3,91-20-3,c1cccc2ccccc21,NAPHTHALENE,Naphthalene,naphthalene,28411,DTXSID8020913,c1cccc2ccccc21,InChI=1S/C10H8/c1-2-6-10-8-4-3-7-9(10)5-1/h1-8H,UFWIBTONFRDIAS-UHFFFAOYSA-N,?,,80.2,101110
101111,91-22-5,91-22-5,c1cccc2[n]cccc21,QUINOLINE,Quinoline,C9H7N,28412,DTXSID1021798,c1cccc2[n]cccc21,InChI=1S/C9H7N/c1-2-6-9-8(4-1)5-3-7-10-9/h1-7H,SMWDFEZZVXVKRB-UHFFFAOYSA-N,?,,-14.78,101111
101112,91-23-6,91-23-6,COc1ccccc1[N+]([O-])=O,2-NITROANISOLE,1-Methoxy-2-nitrobenzene,1-methoxy-2-nitrobenzene,28413,DTXSID3020962,COc1ccccc1[N+]([O-])=O,"InChI=1S/C7H7NO3/c1-11-7-5-3-2-4-6(7)8(9)10/h2-5H,1H3",CFBYEGUGFPZCNF-UHFFFAOYSA-N,?,,10.5,101112
101114,91-40-7,91-40-7,OC(=O)c1ccccc1Nc1ccccc1,N-PHENYL O-AMINOBENZOIC ACID,Phenylanthranilic acid,2-(Phenylamino)benzoic acid,28415,DTXSID6059025,OC(=O)c1ccccc1Nc1ccccc1,"InChI=1S/C13H11NO2/c15-13(16)11-8-4-5-9-12(11)14-10-6-2-1-3-7-10/h1-9,14H,(H,15,16)",ZWJINEZUASEZBH-UHFFFAOYSA-N,?,,183.5,101114
101116,91-49-6,91-49-6,CC(=O)N(CCCC)c1ccccc1,"Acetamide, N-butyl-N-phenyl-",N-Butylacetanilide,N-butyl-N-phenylacetamide,28416,DTXSID2042197,CC(=O)N(CCCC)c1ccccc1,"InChI=1S/C12H17NO/c1-3-4-10-13(11(2)14)12-8-6-5-7-9-12/h5-9H,3-4,10H2,1-2H3",ZWDZJRRQSXLOQR-UHFFFAOYSA-N,?,,24.5,101116
101117,91-52-1,91-52-1,COc1cc(ccc1C(O)=O)OC,"2,4-DIMETHOXYBENZOIC ACID","Benzoic acid, 2,4-dimethoxy-","2,4-Dimethoxybenzoic acid",28417,DTXSID1059026,COc1cc(ccc1C(O)=O)OC,"InChI=1S/C9H10O4/c1-12-6-3-4-7(9(10)11)8(5-6)13-2/h3-5H,1-2H3,(H,10,11)",GPVDHNVGGIAOQT-UHFFFAOYSA-N,?,,109.0,101117
101119,91-57-6,91-57-6,Cc1cc2ccccc2cc1,2-METHYLNAPHTHALENE,2-Methylnaphthalene,2-methylnaphthalene,28419,DTXSID4020878,Cc1cc2ccccc2cc1,"InChI=1S/C11H10/c1-9-6-7-10-4-2-3-5-11(10)8-9/h2-8H,1H3",QIMMUPPBPVKWKM-UHFFFAOYSA-N,?,,34.4,101119
101120,91-58-7,91-58-7,Clc1cc2ccccc2cc1,2-CHLORONAPHTHALENE,2-Chloronaphthalene,2-chloronaphthalene,28420,DTXSID8023971,Clc1cc2ccccc2cc1,InChI=1S/C10H7Cl/c11-10-6-5-8-3-1-2-4-9(8)7-10/h1-7H,CGYGETOMCSJHJU-UHFFFAOYSA-N,?,,61.0,101120
101121,91-59-8,91-59-8,Nc1cc2ccccc2cc1,2-NAPHTHYLAMINE,2-Naphthylamine,naphthalen-2-amine,28421,DTXSID2020921,Nc1cc2ccccc2cc1,"InChI=1S/C10H9N/c11-10-6-5-8-3-1-2-4-9(8)7-10/h1-7H,11H2",JBIJLHTVPXGSAM-UHFFFAOYSA-N,?,,113.0,101121
101123,91-62-3,91-62-3,Cc1cc2ccc[n]c2cc1,6-METHYLQUINOLINE,6-Methylquinoline,6-methylquinoline,28423,DTXSID3020887,Cc1cc2ccc[n]c2cc1,"InChI=1S/C10H9N/c1-8-4-5-10-9(7-8)3-2-6-11-10/h2-7H,1H3",LUYISICIYVKBTA-UHFFFAOYSA-N,?,,-22.0,101123
101124,91-63-4,91-63-4,Cc1ccc2ccccc2[n]1,2-METHYLQUINOLINE,Quinaldine,2-methylquinoline,28424,DTXSID3040271,Cc1ccc2ccccc2[n]1,"InChI=1S/C10H9N/c1-8-6-7-9-4-2-3-5-10(9)11-8/h2-7H,1H3",SMUQFGGVLNAIOZ-UHFFFAOYSA-N,?,,-1.5,101124
101125,91-64-5,91-64-5,O=C1C=Cc2ccccc2O1,COUMARIN,Coumarin,2H-chromen-2-one,28425,DTXSID7020348,O=C1C=Cc2ccccc2O1,InChI=1S/C9H6O2/c10-9-6-5-7-3-1-2-4-8(7)11-9/h1-6H,ZYGHJZDHTFUPRJ-UHFFFAOYSA-N,?,,71.0,101125
101127,91-68-9,91-68-9,CCN(CC)c1cccc(O)c1,"Phenol, 3-(diethylamino)-",3-Diethylaminophenol,3-(diethylamino)phenol,28427,DTXSID9025037,CCN(CC)c1cccc(O)c1,"InChI=1S/C10H15NO/c1-3-11(4-2)9-6-5-7-10(12)8-9/h5-8,12H,3-4H2,1-2H3",WAVOOWVINKGEHS-UHFFFAOYSA-N,?,,78.0,101127
101128,91-73-6,91-73-6,C(c1ccccc1)N(Cc1ccccc1)c1ccccc1,"Benzenemethanamine, N-phenyl-N-(phenylmethyl)-","Benzenemethanamine, N-phenyl-N-(phenylmethyl)-","N,N-bis(phenylmethyl)aniline",28428,DTXSID5059030,C(c1ccccc1)N(Cc1ccccc1)c1ccccc1,"InChI=1S/C20H19N/c1-4-10-18(11-5-1)16-21(20-14-8-3-9-15-20)17-19-12-6-2-7-13-19/h1-15H,16-17H2",ISGXOWLMGOPVPB-UHFFFAOYSA-N,?,,69.0,101128
101129,91-75-8,91-75-8,C(c1ccccc1)N(CC1NCCN=1)c1ccccc1,Antazoline,Antazoline,"N-benzyl-N-(4,5-dihydro-1H-imidazol-2-ylmethyl)aniline",28429,DTXSID3022613,C(c1ccccc1)N(CC1NCCN=1)c1ccccc1,"InChI=1S/C17H19N3/c1-3-7-15(8-4-1)13-20(14-17-18-11-12-19-17)16-9-5-2-6-10-16/h1-10H,11-14H2,(H,18,19)",REYFJDPCWQRWAA-UHFFFAOYSA-N,?,,120.0,101129
101131,91-78-1,91-78-1,C1N(CN(CN1c1ccccc1)c1ccccc1)c1ccccc1,"1,3,5-Triazine, hexahydro-1,3,5-triphenyl-","1,3,5-Triazine, hexahydro-1,3,5-triphenyl-","1,3,5-tri(phenyl)-1,3,5-triazinane",28431,DTXSID5059032,C1N(CN(CN1c1ccccc1)c1ccccc1)c1ccccc1,"InChI=1S/C21H21N3/c1-4-10-19(11-5-1)22-16-23(20-12-6-2-7-13-20)18-24(17-22)21-14-8-3-9-15-21/h1-15H,16-18H2",VASMRQAVWVVDPA-UHFFFAOYSA-N,?,,144.0,101131
101132,91-82-7,91-82-7,Clc1ccc(C/C(=C\CN2CCCC2)/c2ccccc2)cc1,Pyrrobutamine,Pyrrobutamine,1-[(2E)-4-(4-chlorophenyl)-3-phenylbut-2-en-1-yl]pyrrolidine,28432,DTXSID9023544,Clc1ccc(CC(=CCN2CCCC2)c2ccccc2)cc1,"InChI=1S/C20H22ClN/c21-20-10-8-17(9-11-20)16-19(18-6-2-1-3-7-18)12-15-22-13-4-5-14-22/h1-3,6-12H,4-5,13-16H2/b19-12-",WDYYVNNRTDZKAZ-UNOMPAQXSA-N,?,,48.5,101132
101133,91-93-0,91-93-0,COc1cc(ccc1N=C=O)-c1cc(OC)c(cc1)N=C=O,"3,3'-Dimethoxybenzidine-4,4'-diisocyanate","3,3'-Dimethoxybenzidine-4,4'-diisocyanate","4,4'-diisocyanato-3,3'-dimethoxybiphenyl",28433,DTXSID6020484,COc1cc(ccc1N=C=O)-c1cc(OC)c(cc1)N=C=O,"InChI=1S/C16H12N2O4/c1-21-15-7-11(3-5-13(15)17-9-19)12-4-6-14(18-10-20)16(8-12)22-2/h3-8H,1-2H3",QZWKEPYTBWZJJA-UHFFFAOYSA-N,?,,114.0,101133
101135,91-95-2,91-95-2,Nc1ccc(cc1N)-c1cc(N)c(N)cc1,"3,3'-Diaminobenzidine","3,3'-Diaminobenzidine","biphenyl-3,3',4,4'-tetramine",28435,DTXSID2036827,Nc1ccc(cc1N)-c1cc(N)c(N)cc1,"InChI=1S/C12H14N4/c13-9-3-1-7(5-11(9)15)8-2-4-10(14)12(16)6-8/h1-6H,13-16H2",HSTOKWSFWGCZMH-UHFFFAOYSA-N,?,,176.0,101135
101136,91-96-3,91-96-3,CC(=O)CC(=O)Nc1ccc(cc1C)-c1cc(C)c(cc1)NC(=O)CC(C)=O,C.I. AZOIC COUPLING COMPONENT 5,"Butanamide, N,N'-(3,3'-dimethyl[1,1'-biphenyl]-4,4'-diyl)bis[3-oxo-",N-[2-methyl-4-[3-methyl-4-(3-oxobutanoylamino)phenyl]phenyl]-3-oxobutanamide,28436,DTXSID5059034,CC(=O)CC(=O)Nc1ccc(cc1C)-c1cc(C)c(cc1)NC(=O)CC(C)=O,"InChI=1S/C22H24N2O4/c1-13-9-17(5-7-19(13)23-21(27)11-15(3)25)18-6-8-20(14(2)10-18)24-22(28)12-16(4)26/h5-10H,11-12H2,1-4H3,(H,23,27)(H,24,28)",CRRLDLPBQWRVGN-UHFFFAOYSA-N,?,,212.0,101136
101137,91-97-4,91-97-4,Cc1cc(ccc1N=C=O)-c1cc(C)c(cc1)N=C=O,"1,1'-Biphenyl, 4,4'-diisocyanato-3,3'-dimethyl-","3,3'-Dimethyl-4,4'-diphenylene diisocyanate","4,4'-diisocyanato-3,3'-dimethylbiphenyl",28437,DTXSID7041463,Cc1cc(ccc1N=C=O)-c1cc(C)c(cc1)N=C=O,"InChI=1S/C16H12N2O2/c1-11-7-13(3-5-15(11)17-9-19)14-4-6-16(18-10-20)12(2)8-14/h3-8H,1-2H3",ICLCCFKUSALICQ-UHFFFAOYSA-N,?,,71.0,101137
101139,92-06-8,92-06-8,c1c(cccc1-c1ccccc1)-c1ccccc1,m-TERPHENYL,"1,1':3',1''-Terphenyl","1,1':3',1''-terphenyl",28439,DTXSID2029117,c1c(cccc1-c1ccccc1)-c1ccccc1,InChI=1S/C18H14/c1-3-8-15(9-4-1)17-12-7-13-18(14-17)16-10-5-2-6-11-16/h1-14H,YJTKZCDBKVTVBY-UHFFFAOYSA-N,?,,87.0,101139
101140,92-13-7,92-13-7,CC[C@H]1[C@H](COC1=O)Cc1c[n]c[n]1C,PILOCARPOL,Pilocarpine,"(3S,4R)-3-ethyl-4-[(1-methyl-1H-imidazol-5-yl)methyl]dihydrofuran-2(3H)-one",28440,DTXSID1021162,CCC1C(COC1=O)Cc1c[n]c[n]1C,"InChI=1S/C11H16N2O2/c1-3-10-8(6-15-11(10)14)4-9-5-12-7-13(9)2/h5,7-8,10H,3-4,6H2,1-2H3",QCHFTSOMWOSFHM-UHFFFAOYSA-N,?,,34.0,101140
101141,92-15-9,92-15-9,CC(=O)CC(=O)Nc1ccccc1OC,Acetoacet-o-anisidide,N-(2-Methoxyphenyl)-3-oxobutanamide,N-(2-methoxyphenyl)-3-oxobutanamide,28441,DTXSID9026558,CC(=O)CC(=O)Nc1ccccc1OC,"InChI=1S/C11H13NO3/c1-8(13)7-11(14)12-9-5-3-4-6-10(9)15-2/h3-6H,7H2,1-2H3,(H,12,14)",KYYRTDXOHQYZPO-UHFFFAOYSA-N,?,,86.0,101141