ChemID,source_casrn,CAS,SMILES,NAME,preferred_name,iupac,MPID,dsstox_substance_id,Canonical_QSARr,InChI_Code_QSARr,InChI Key_QSARr,Salt_Solvent,BP,ID
101015,109-55-7,109-55-7,CN(C)CCCN,"1,3-Propanediamine, N,N-dimethyl-",3-(Dimethylamino)propylamine,"N,N-dimethylpropane-1,3-diamine",20081,DTXSID5025102,CN(C)CCCN,"InChI=1S/C5H14N2/c1-7(2)5-3-4-6/h3-6H2,1-2H3",IUNMPGNGSSIWFP-UHFFFAOYSA-N,?,133.0,101015
101016,109-56-8,109-56-8,CC(C)NCCO,"Ethanol, 2- (1-methylethyl)amino -",2-(Isopropylamino)ethanol,2-(propan-2-ylamino)ethanol,20082,DTXSID5059373,CC(C)NCCO,"InChI=1S/C5H13NO/c1-5(2)6-3-4-7/h5-7H,3-4H2,1-2H3",RILLZYSZSDGYGV-UHFFFAOYSA-N,?,173.0,101016
101018,109-60-4,109-60-4,CCCOC(C)=O,N-PROPYL ACETATE,Propyl acetate,propyl acetate,20084,DTXSID6021901,CCCOC(C)=O,"InChI=1S/C5H10O2/c1-3-4-7-5(2)6/h3-4H2,1-2H3",YKYONYBAUNKHLG-UHFFFAOYSA-N,?,101.5,101018
101019,109-61-5,109-61-5,CCCOC(=O)Cl,"Carbonochloridic acid, propyl ester",Propyl chloroformate,propyl carbonochloridate,20085,DTXSID3042342,CCCOC(=O)Cl,"InChI=1S/C4H7ClO2/c1-2-3-7-4(5)6/h2-3H2,1H3",QQKDTTWZXHEGAQ-UHFFFAOYSA-N,?,115.2,101019
101021,109-64-8,109-64-8,BrCCCBr,"1,3-DIBROMOPROPANE","1,3-Dibromopropane",C3H6Br2,20086,DTXSID1021902,BrCCCBr,InChI=1S/C3H6Br2/c4-2-1-3-5/h1-3H2,VEFLKXRACNJHOV-UHFFFAOYSA-N,?,167.3,101021
101023,109-66-0,109-66-0,CCCCC,N-PENTANE,Pentane,C5H12,20088,DTXSID2025846,CCCCC,"InChI=1S/C5H12/c1-3-5-4-2/h3-5H2,1-2H3",OFBQJSOFQDEBGM-UHFFFAOYSA-N,?,36.0,101023
101024,109-67-1,109-67-1,CCCC=C,1-PENTENE,1-Pentene,pent-1-ene,20089,DTXSID7025849,CCCC=C,"InChI=1S/C5H10/c1-3-5-4-2/h3H,1,4-5H2,2H3",YWAKXRMUMFPDSH-UHFFFAOYSA-N,?,29.9,101024
101025,109-68-2|627-20-3|646-04-8,109-68-2,CC=CCC,"2-PENTENE, CIS-2-PENTENE, TRANS-2-PENTENE",2-Pentene,?,20090|21961|22130,DTXSID5059375,CC=CCC,"InChI=1S/C5H10/c1-3-5-4-2/h3,5H,4H2,1-2H3/b5-3+",QMMOXUPEWRXHJS-HWKANZROSA-N,?,36.7333333333333,101025
101027,109-70-6,109-70-6,ClCCCBr,1-CHLORO-3-BROMOPROPANE,1-Bromo-3-chloropropane,1-bromo-3-chloropropane,20092,DTXSID1051565,ClCCCBr,InChI=1S/C3H6BrCl/c4-2-1-3-5/h1-3H2,MFESCIUQSIBMSM-UHFFFAOYSA-N,?,143.3,101027
101028,109-73-9,109-73-9,CCCCN,N-BUTYLAMINE,Butylamine,butan-1-amine,20093,DTXSID1021904,CCCCN,"InChI=1S/C4H11N/c1-2-3-4-5/h2-5H2,1H3",HQABUPZFAYXKJW-UHFFFAOYSA-N,?,78.0,101028
101029,109-74-0,109-74-0,CCCC#N,BUTYRONITRILE,Butanenitrile,butanenitrile,20094,DTXSID1026823,CCCC#N,"InChI=1S/C4H7N/c1-2-3-4-5/h2-3H2,1H3",KVNRLNFWIYMESJ-UHFFFAOYSA-N,?,117.6,101029
101031,109-76-2,109-76-2,NCCCN,"1,3-PROPANEDIAMINE","1,3-Diaminopropane","propane-1,3-diamine",20096,DTXSID1021906,NCCCN,InChI=1S/C3H10N2/c4-2-1-3-5/h1-5H2,XFNJVJPLKCPIBV-UHFFFAOYSA-N,?,139.8,101031
101032,109-77-3,109-77-3,N#CCC#N,MALONONITRILE,Propanedinitrile,propanedinitrile,20097,DTXSID6021907,N#CCC#N,InChI=1S/C3H2N2/c4-2-1-3-5/h1H2,CUONGYYJJVDODC-UHFFFAOYSA-N,?,218.5,101032
101033,109-78-4,109-78-4,N#CCCO,ETHYLENE CYANOHYDRIN,3-Hydroxypropanenitrile,3-hydroxypropanenitrile,20098,DTXSID1025433,N#CCCO,"InChI=1S/C3H5NO/c4-2-1-3-5/h5H,1,3H2",WSGYTJNNHPZFKR-UHFFFAOYSA-N,?,221.0,101033
101035,109-80-8,109-80-8,SCCCS,"1,3-Propanedithiol","1,3-Propanedithiol","propane-1,3-dithiol",20100,DTXSID0059376,SCCCS,"InChI=1S/C3H8S2/c4-2-1-3-5/h4-5H,1-3H2",ZJLMKPKYJBQJNH-UHFFFAOYSA-N,?,172.9,101035
101036,109-81-9,109-81-9,CNCCN,"1,2-Ethanediamine, N-methyl-","1,2-Ethanediamine, N-methyl-","N-methylethane-1,2-diamine",20101,DTXSID5059377,CNCCN,"InChI=1S/C3H10N2/c1-5-3-2-4/h5H,2-4H2,1H3",KFIGICHILYTCJF-UHFFFAOYSA-N,?,115.0,101036
101037,109-83-1,109-83-1,CNCCO,2-(METHYLAMINO)ETHANOL,N-Methylethanolamine,2-(methylamino)ethanol,20102,DTXSID5025603,CNCCO,"InChI=1S/C3H9NO/c1-4-2-3-5/h4-5H,2-3H2,1H3",OPKOKAMJFNKNAS-UHFFFAOYSA-N,?,158.0,101037
101039,109-85-3,109-85-3,COCCN,"Ethanamine, 2-methoxy-",2-Methoxyethylamine,2-methoxyethanamine,20104,DTXSID1021908,COCCN,"InChI=1S/C3H9NO/c1-5-3-2-4/h2-4H2,1H3",ASUDFOJKTJLAIK-UHFFFAOYSA-N,?,95.0,101039
101040,109-86-4,109-86-4,COCCO,2-METHOXYETHANOL,2-Methoxyethanol,2-methoxyethanol,20105,DTXSID5024182,COCCO,"InChI=1S/C3H8O2/c1-5-3-2-4/h4H,2-3H2,1H3",XNWFRZJHXBZDAG-UHFFFAOYSA-N,?,124.1,101040
101041,109-87-5,109-87-5,COCOC,DIMETHOXYMETHANE,Dimethoxymethane,dimethoxymethane,20106,DTXSID1025564,COCOC,"InChI=1S/C3H8O2/c1-4-3-5-2/h3H2,1-2H3",NKDDWNXOKDWJAK-UHFFFAOYSA-N,?,42.0,101041
101043,109-90-0,109-90-0,CCN=C=O,"Ethane, isocyanato-",Ethyl isocyanate,Isocyanatoethane,20108,DTXSID5059379,CCN=C=O,"InChI=1S/C3H5NO/c1-2-4-3-5/h2H2,1H3",WUDNUHPRLBTKOJ-UHFFFAOYSA-N,?,60.0,101043
101044,109-92-2,109-92-2,CCOC=C,ETHYL VINYL ETHER,"Ethene, ethoxy-",ethenyl ethyl ether,20109,DTXSID3029609,CCOC=C,"InChI=1S/C4H8O/c1-3-5-4-2/h3H,1,4H2,2H3",FJKIXWOMBXYWOQ-UHFFFAOYSA-N,?,35.5,101044
101045,109-93-3,109-93-3,C=COC=C,DIVINYL ETHER,"Ethene, 1,1'-oxybis-",ethenoxyethene,20110,DTXSID5074555,C=COC=C,"InChI=1S/C4H6O/c1-3-5-4-2/h3-4H,1-2H2",QYKIQEUNHZKYBP-UHFFFAOYSA-N,?,28.3,101045
101047,109-95-5,109-95-5,CCON=O,ETHYLNITRITE,Ethyl nitrite,ethyl nitrite,20112,DTXSID9046574,CCON=O,"InChI=1S/C2H5NO2/c1-2-5-3-4/h2H2,1H3",QQZWEECEMNQSTG-UHFFFAOYSA-N,?,18.0,101047
101048,109-96-6,109-96-6,C1C=CCN1,"1H-Pyrrole, 2,5-dihydro-","1H-Pyrrole, 2,5-dihydro-","2,5-dihydro-1H-pyrrole",20113,DTXSID4059380,C1C=CCN1,"InChI=1S/C4H7N/c1-2-4-5-3-1/h1-2,5H,3-4H2",JVQIKJMSUIMUDI-UHFFFAOYSA-N,?,90.5,101048
101049,109-97-7,109-97-7,c1ccc[nH]1,PYRROLE,Pyrrole,1H-pyrrole,20114,DTXSID5021910,c1ccc[nH]1,InChI=1S/C4H5N/c1-2-4-5-3-1/h1-5H,KAESVJOAVNADME-UHFFFAOYSA-N,?,129.7,101049
101051,109-99-9,109-99-9,C1CCCO1,TETRAHYDROFURAN,Tetrahydrofuran,tetrahydrofuran,20116,DTXSID1021328,C1CCCO1,InChI=1S/C4H8O/c1-2-4-5-3-1/h1-4H2,WYURNTSHIVDZCO-UHFFFAOYSA-N,?,65.0,101051
101052,110-00-9,110-00-9,c1ccco1,FURAN,Furan,furan,20117,DTXSID6020646,c1ccco1,InChI=1S/C4H4O/c1-2-4-5-3-1/h1-4H,YLQBMQCUIZJEEH-UHFFFAOYSA-N,?,31.5,101052
101053,110-01-0,110-01-0,C1CCCS1,TETRAHYDROTHIOPHENE,Tetrahydrothiophene,tetrahydrothiophene,20118,DTXSID3047760,C1CCCS1,InChI=1S/C4H8S/c1-2-4-5-3-1/h1-4H2,RAOIDOHSFRTOEL-UHFFFAOYSA-N,?,121.0,101053
101055,110-03-2,110-03-2,CC(C)(O)CCC(C)(C)O,"2,5-Hexanediol, 2,5-dimethyl-","2,5-Dimethylhexane-2,5-diol","2,5-dimethylhexane-2,5-diol",20120,DTXSID0026830,CC(C)(O)CCC(C)(C)O,"InChI=1S/C8H18O2/c1-7(2,9)5-6-8(3,4)10/h9-10H,5-6H2,1-4H3",ZWNMRZQYWRLGMM-UHFFFAOYSA-N,?,214.0,101055
101056,110-05-4,110-05-4,CC(C)(C)OOC(C)(C)C,T-BUTYL-PEROXIDE,Di-tert-butyl peroxide,2-(tert-butylperoxy)-2-methylpropane,20121,DTXSID2024955,CC(C)(C)OOC(C)(C)C,"InChI=1S/C8H18O2/c1-7(2,3)9-10-8(4,5)6/h1-6H3",LSXWFXONGKSEMY-UHFFFAOYSA-N,?,111.0,101056
101057,110-12-3,110-12-3,CC(C)CCC(C)=O,5-METHYL-2-HEXANONE,5-Methyl-2-hexanone,5-methylhexan-2-one,20122,DTXSID5021914,CC(C)CCC(C)=O,"InChI=1S/C7H14O/c1-6(2)4-5-7(3)8/h6H,4-5H2,1-3H3",FFWSICBKRCICMR-UHFFFAOYSA-N,?,144.0,101057
101059,110-18-9,110-18-9,CN(C)CCN(C)C,"N,N,N',N'-TETRAME ETHYLENEDIAMINE","N,N,N',N'-Tetramethylethylenediamine","N,N,N',N'-tetramethylethane-1,2-diamine",20124,DTXSID5026122,CN(C)CCN(C)C,"InChI=1S/C6H16N2/c1-7(2)5-6-8(3)4/h5-6H2,1-4H3",KWYHDKDOAIKMQN-UHFFFAOYSA-N,?,121.0,101059
101060,110-19-0,110-19-0,CC(C)COC(C)=O,SEC-BUTYLACETATE,Isobutyl acetate,2-methylpropyl acetate,20125,DTXSID5026837,CC(C)COC(C)=O,"InChI=1S/C6H12O2/c1-5(2)4-8-6(3)7/h5H,4H2,1-3H3",GJRQTCIYDGXPES-UHFFFAOYSA-N,?,116.5,101060
101061,110-38-3,110-38-3,CCCCCCCCCC(=O)OCC,ETHYL DECANOATE,Ethyl decanoate,ethyl decanoate,20126,DTXSID0044363,CCCCCCCCCC(=O)OCC,"InChI=1S/C12H24O2/c1-3-5-6-7-8-9-10-11-12(13)14-4-2/h3-11H2,1-2H3",RGXWDWUGBIJHDO-UHFFFAOYSA-N,?,241.5,101061
101063,110-40-7,110-40-7,CCOC(=O)CCCCCCCCC(=O)OCC,DIETHYL SEBACATE,Diethyl decanedioate,diethyl decanedioate,20128,DTXSID0021915,CCOC(=O)CCCCCCCCC(=O)OCC,"InChI=1S/C14H26O4/c1-3-17-13(15)11-9-7-5-6-8-10-12-14(16)18-4-2/h3-12H2,1-2H3",ONKUXPIBXRRIDU-UHFFFAOYSA-N,?,305.0,101063
101064,110-41-8,110-41-8,CCCCCCCCCC(C)C=O,"Undecanal, 2-methyl-",2-Methylundecanal,2-methylundecanal,20129,DTXSID9047629,CCCCCCCCCC(C)C=O,"InChI=1S/C12H24O/c1-3-4-5-6-7-8-9-10-12(2)11-13/h11-12H,3-10H2,1-2H3",NFAVNWJJYQAGNB-UHFFFAOYSA-N,?,171.0,101064
101065,110-42-9,110-42-9,CCCCCCCCCC(=O)OC,METHYL DECANOATE,Methyl decanoate,methyl decanoate,20130,DTXSID4026842,CCCCCCCCCC(=O)OC,"InChI=1S/C11H22O2/c1-3-4-5-6-7-8-9-10-11(12)13-2/h3-10H2,1-2H3",YRHYCMZPEVDGFQ-UHFFFAOYSA-N,?,224.0,101065
101067,110-45-2,110-45-2,CC(C)CCOC=O,ISOAMYL FORMATE,,,20132,DTXSID00861734,CC(C)CCOC=O,"InChI=1S/C6H12O2/c1-6(2)3-4-8-5-7/h5-6H,3-4H2,1-2H3",XKYICAQFSCFURC-UHFFFAOYSA-N,?,123.5,101067
101068,110-46-3,110-46-3,CC(C)CCON=O,"Nitrous acid, 3-methylbutyl ester",3-Methylbutyl nitrite,3-methylbutyl nitrite,20133,DTXSID9025455,CC(C)CCON=O,"InChI=1S/C5H11NO2/c1-5(2)3-4-8-6-7/h5H,3-4H2,1-2H3",OWFXIOWLTKNBAP-UHFFFAOYSA-N,?,99.2,101068
101069,110-49-6,110-49-6,COCCOC(C)=O,2-METHOXYETHYL ACETATE,2-Methoxyethyl acetate,2-methoxyethyl acetate,20134,DTXSID2025553,COCCOC(C)=O,"InChI=1S/C5H10O3/c1-5(6)8-4-3-7-2/h3-4H2,1-2H3",XLLIQLLCWZCATF-UHFFFAOYSA-N,?,143.0,101069
101071,110-53-2,110-53-2,CCCCCBr,1-BROMOPENTANE,1-Bromopentane,1-bromopentane,20136,DTXSID3049203,CCCCCBr,"InChI=1S/C5H11Br/c1-2-3-4-5-6/h2-5H2,1H3",YZWKKMVJZFACSU-UHFFFAOYSA-N,?,129.8,101071
101072,110-54-3,110-54-3,CCCCCC,N-HEXANE,Hexane,hexane,20137,DTXSID0021917,CCCCCC,"InChI=1S/C6H14/c1-3-5-6-4-2/h3-6H2,1-2H3",VLKZOEOYAKHREP-UHFFFAOYSA-N,?,68.7,101072
101073,110-56-5,110-56-5,ClCCCCCl,"1,4-DICHLOROBUTANE","1,4-Dichlorobutane","1,4-dichlorobutane",20138,DTXSID5021918,ClCCCCCl,InChI=1S/C4H8Cl2/c5-3-1-2-4-6/h1-4H2,KJDRSWPQXHESDQ-UHFFFAOYSA-N,?,161.0,101073
101075,110-58-7,110-58-7,CCCCCN,N-PENTYLAMINE,Pentan-1-amine,pentan-1-amine,20140,DTXSID0021919,CCCCCN,"InChI=1S/C5H13N/c1-2-3-4-5-6/h2-6H2,1H3",DPBLXKKOBLCELK-UHFFFAOYSA-N,?,104.3,101075
101076,110-59-8,110-59-8,CCCCC#N,VALERONITRILE,Valeronitrile,pentanenitrile,20141,DTXSID3026275,CCCCC#N,"InChI=1S/C5H9N/c1-2-3-4-5-6/h2-4H2,1H3",RFFFKMOABOFIDF-UHFFFAOYSA-N,?,141.3,101076
101077,110-60-1,110-60-1,NCCCCN,"1,4-BUTANEDIAMINE",Putrescine,"butane-1,4-diamine",20142,DTXSID4041107,NCCCCN,InChI=1S/C4H12N2/c5-3-1-2-4-6/h1-6H2,KIDHWZJUCRJVML-UHFFFAOYSA-N,?,158.5,101077
101079,110-62-3,110-62-3,CCCCC=O,1-PENTANAL,Pentanal,pentanal,20144,DTXSID7021653,CCCCC=O,"InChI=1S/C5H10O/c1-2-3-4-5-6/h5H,2-4H2,1H3",HGBOYTHUEUWSSQ-UHFFFAOYSA-N,?,103.0,101079
101080,110-63-4,110-63-4,OCCCCO,"1,4-BUTANEDIOL","1,4-Butanediol","butane-1,4-diol",20145,DTXSID2024666,OCCCCO,"InChI=1S/C4H10O2/c5-3-1-2-4-6/h5-6H,1-4H2",WERYXYBDKMZEQL-UHFFFAOYSA-N,?,235.0,101080
101081,110-65-6,110-65-6,OCC#CCO,"2-BUTYNE-1,4-DIOL","2-Butyne-1,4-diol","but-2-yne-1,4-diol",20146,DTXSID4021921,OCC#CCO,"InChI=1S/C4H6O2/c5-3-1-2-4-6/h5-6H,3-4H2",DLDJFQGPPSQZKI-UHFFFAOYSA-N,?,238.0,101081
101083,110-67-8,110-67-8,COCCC#N,"Propanenitrile, 3-methoxy-",3-Methoxypropionitrile,3-methoxypropanenitrile,20148,DTXSID3026851,COCCC#N,"InChI=1S/C4H7NO/c1-6-4-2-3-5/h2,4H2,1H3",OOWFYDWAMOKVSF-UHFFFAOYSA-N,?,163.0,101083
101084,110-68-9,110-68-9,CCCCNC,METHYLBUTYLAMINE,"1-Butanamine, N-methyl-",N-methylbutan-1-amine,20149,DTXSID9059389,CCCCNC,"InChI=1S/C5H13N/c1-3-4-5-6-2/h6H,3-5H2,1-2H3",QCOGKXLOEWLIDC-UHFFFAOYSA-N,?,91.0,101084
101085,110-69-0,110-69-0,CCCC=NO,"Butanal, oxime",Butanal oxime,N-hydroxybutan-1-imine,20150,DTXSID2024664,CCCCN=O,"InChI=1S/C4H9NO/c1-2-3-4-5-6/h2-4H2,1H3",VVGONFMJWMFEMZ-UHFFFAOYSA-N,?,154.0,101085
101087,110-71-4,110-71-4,COCCOC,ETHYLENE GLYCOL DIMETHYL ETHER,Ethylene glycol dimethyl ether,"1,2-dimethoxyethane",20152,DTXSID0025286,COCCOC,"InChI=1S/C4H10O2/c1-5-3-4-6-2/h3-4H2,1-2H3",XTHFKEDIFFGKHM-UHFFFAOYSA-N,?,85.0,101087
101088,110-72-5,110-72-5,CCNCCN,"1,2-Ethanediamine, N-ethyl-","1,2-Ethanediamine, N-ethyl-","N-ethylethane-1,2-diamine",20153,DTXSID8059390,CCNCCN,"InChI=1S/C4H12N2/c1-2-6-4-3-5/h6H,2-5H2,1H3",SCZVXVGZMZRGRU-UHFFFAOYSA-N,?,129.0,101088
101089,110-73-6,110-73-6,CCNCCO,"Ethanol, 2-(ethylamino)-",2-(Ethylamino)ethanol,2-(ethylamino)ethanol,20154,DTXSID9021922,CCNCCO,"InChI=1S/C4H11NO/c1-2-5-3-4-6/h5-6H,2-4H2,1H3",MIJDSYMOBYNHOT-UHFFFAOYSA-N,?,169.5,101089
101091,110-75-8,110-75-8,C=COCCCl,2-CHLOROETHYL VINYL ETHER,2-Chloroethyl vinyl ether,(2-chloroethoxy)ethene,20156,DTXSID0051570,C=COCCCl,"InChI=1S/C4H7ClO/c1-2-6-4-3-5/h2H,1,3-4H2",DNJRKFKAFWSXSE-UHFFFAOYSA-N,?,108.0,101091
101092,110-76-9,110-76-9,CCOCCN,"Ethanamine, 2-ethoxy-","Ethanamine, 2-ethoxy-",2-ethoxyethanamine,20157,DTXSID8059392,CCOCCN,"InChI=1S/C4H11NO/c1-2-6-4-3-5/h2-5H2,1H3",BPGIOCZAQDIBPI-UHFFFAOYSA-N,?,108.0,101092
101093,110-77-0,110-77-0,CCSCCO,"Ethanol, 2-(ethylthio)-","Ethanol, 2-(ethylthio)-",2-ethylsulfanylethanol,20158,DTXSID3059393,CCSCCO,"InChI=1S/C4H10OS/c1-2-6-4-3-5/h5H,2-4H2,1H3",LNRIEBFNWGMXKP-UHFFFAOYSA-N,?,184.0,101093
101095,110-80-5,110-80-5,CCOCCO,2-Ethoxyethanol,2-Ethoxyethanol,2-ethoxyethanol,20160,DTXSID7024087,CCOCCO,"InChI=1S/C4H10O2/c1-2-6-4-3-5/h5H,2-4H2,1H3",ZNQVEEAIQZEUHB-UHFFFAOYSA-N,?,135.0,101095
101096,110-81-6,110-81-6,CCSSCC,DIETHYL DISULFIDE,Diethyl disulphide,diethyl disulfide,20161,DTXSID3051464,CCSSCC,"InChI=1S/C4H10S2/c1-3-5-6-4-2/h3-4H2,1-2H3",CETBSQOFQKLHHZ-UHFFFAOYSA-N,?,154.1,101096
101097,110-82-7,110-82-7,C1CCCCC1,CYCLOHEXANE,Cyclohexane,cyclohexane,20162,DTXSID4021923,C1CCCCC1,InChI=1S/C6H12/c1-2-4-6-5-3-1/h1-6H2,XDTMQSROBMDMFD-UHFFFAOYSA-N,?,80.7,101097
101099,110-85-0,110-85-0,C1CNCCN1,PIPERAZINE,Piperazine,piperazine,20164,DTXSID1021164,C1CNCCN1,"InChI=1S/C4H10N2/c1-2-6-4-3-5-1/h5-6H,1-4H2",GLUUGHFHXGJENI-UHFFFAOYSA-N,?,146.0,101099
101100,110-86-1,110-86-1,c1cccc[n]1,PYRIDINE,Pyridine,pyridine,20165,DTXSID9021924,c1cccc[n]1,InChI=1S/C5H5N/c1-2-4-6-5-3-1/h1-5H,JUJWROOIHBZHMG-UHFFFAOYSA-N,?,115.2,101100
101101,110-87-2,110-87-2,C1CCOC=C1,"2H-PYRAN, 3,4-DIHYDRO-","3,4-Dihydro-2H-pyran","3,4-dihydro-2H-pyran",20166,DTXSID6041426,C1CCOC=C1,"InChI=1S/C5H8O/c1-2-4-6-5-3-1/h2,4H,1,3,5H2",BUDQDWGNQVEFAC-UHFFFAOYSA-N,?,86.0,101101
101103,110-89-4,110-89-4,C1CCCCN1,PIPERIDINE,Piperidine,piperidine,20168,DTXSID6021165,C1CCCCN1,"InChI=1S/C5H11N/c1-2-4-6-5-3-1/h6H,1-5H2",NQRYJNQNLNOLGT-UHFFFAOYSA-N,?,106.0,101103
101104,110-91-8,110-91-8,C1COCCN1,MORPHOLINE,Morpholine,morpholine,20169,DTXSID2025688,C1COCCN1,"InChI=1S/C4H9NO/c1-3-6-4-2-5-1/h5H,1-4H2",YNAVUWVOSKDBBP-UHFFFAOYSA-N,?,128.0,101104
101105,110-93-0,110-93-0,CC(C)=CCCC(C)=O,"5-Hepten-2-one, 6-methyl-",6-Methyl-5-hepten-2-one,6-methylhept-5-en-2-one,20170,DTXSID5021629,CC(C)=CCCC(C)=O,"InChI=1S/C8H14O/c1-7(2)5-4-6-8(3)9/h5H,4,6H2,1-3H3",UHEPJGULSIKKTP-UHFFFAOYSA-N,?,173.5,101105
101107,110-95-2,110-95-2,CN(C)CCCN(C)C,"1,3-Propanediamine, N,N,N',N'-tetramethyl-","N,N,N',N'-Tetramethyl-1,3-propanediamine",C7H18N2,20172,DTXSID9047469,CN(C)CCCN(C)C,"InChI=1S/C7H18N2/c1-8(2)6-5-7-9(3)4/h5-7H2,1-4H3",DMQSHEKGGUOYJS-UHFFFAOYSA-N,?,144.0,101107
101108,110-96-3,110-96-3,CC(C)CNCC(C)C,DIISOBUTYLAMINE,Diisobutylamine,2-methyl-N-(2-methylpropyl)propan-1-amine,20173,DTXSID5025079,CC(C)CNCC(C)C,"InChI=1S/C8H19N/c1-7(2)5-9-6-8(3)4/h7-9H,5-6H2,1-4H3",NJBCRXCAPCODGX-UHFFFAOYSA-N,?,139.6,101108
101109,110-97-4,110-97-4,CC(O)CNCC(C)O,DIISOPROPANOLAMINE,Diisopropanolamine,"1,1'-iminodipropan-2-ol",20174,DTXSID8020179,CC(O)CNCC(C)O,"InChI=1S/C6H15NO2/c1-5(8)3-7-4-6(2)9/h5-9H,3-4H2,1-2H3",LVTYICIALWPMFW-UHFFFAOYSA-N,?,250.0,101109
101111,111-01-3,111-01-3,CC(C)CCCC(C)CCCC(C)CCCCC(C)CCCC(C)CCCC(C)C,"Tetracosane, 2,6,10,15,19,23-hexamethyl-",Squalane,"2,6,10,15,19,23-hexamethyltetracosane",20176,DTXSID0046513,CC(C)CCCC(C)CCCC(C)CCCCC(C)CCCC(C)CCCC(C)C,"InChI=1S/C30H62/c1-25(2)15-11-19-29(7)23-13-21-27(5)17-9-10-18-28(6)22-14-24-30(8)20-12-16-26(3)4/h25-30H,9-24H2,1-8H3",PRAKJMSDJKAYCZ-UHFFFAOYSA-N,?,350.0,101111
101112,111-11-5,111-11-5,CCCCCCCC(=O)OC,METHYL OCTANOATE,Methyl octanoate,methyl octanoate,20177,DTXSID2026864,CCCCCCCC(=O)OC,"InChI=1S/C9H18O2/c1-3-4-5-6-7-8-9(10)11-2/h3-8H2,1-2H3",JGHZJRVDZXSNKQ-UHFFFAOYSA-N,?,192.9,101112
101113,111-12-6,111-12-6,CCCCCC#CC(=O)OC,Methyl heptine carbonate,Methyl 2-octynoate,methyl oct-2-ynoate,20178,DTXSID9047093,CCCCCC#CC(=O)OC,"InChI=1S/C9H14O2/c1-3-4-5-6-7-8-9(10)11-2/h3-6H2,1-2H3",FRLZQXRXIKQFNS-UHFFFAOYSA-N,?,218.5,101113
101115,111-14-8,111-14-8,CCCCCCC(O)=O,HEPTANOIC ACID,Heptanoic acid,heptanoic acid,20180,DTXSID2021600,CCCCCCC(O)=O,"InChI=1S/C7H14O2/c1-2-3-4-5-6-7(8)9/h2-6H2,1H3,(H,8,9)",MNWFXJYAOYHMED-UHFFFAOYSA-N,?,222.2,101115
101116,111-15-9,111-15-9,CCOCCOC(C)=O,ETHOXYETHYLACETATE,2-Ethoxyethyl acetate,2-ethoxyethyl acetate,20181,DTXSID9021928,CCOCCOC(C)=O,"InChI=1S/C6H12O3/c1-3-8-4-5-9-6(2)7/h3-5H2,1-2H3",SVONRAPFKPVNKG-UHFFFAOYSA-N,?,156.4,101116
101117,111-16-0,111-16-0,OC(=O)CCCCCC(O)=O,PIMELIC ACID,Heptanedioic acid,heptanedioic acid,20182,DTXSID5021598,OC(=O)CCCCCC(O)=O,"InChI=1S/C7H12O4/c8-6(9)4-2-1-3-5-7(10)11/h1-5H2,(H,8,9)(H,10,11)",WLJVNTCWHIRURA-UHFFFAOYSA-N,?,342.0,101117
101119,111-21-7,111-21-7,CC(=O)OCCOCCOCCOC(C)=O,ETHYLENEBIS(OXYETHYLENE)DIACETATE,Triethylene glycol diacetate,"ethane-1,2-diylbis(oxyethane-2,1-diyl) diacetate",20184,DTXSID3026223,CC(=O)OCCOCCOCCOC(C)=O,"InChI=1S/C10H18O6/c1-9(11)15-7-5-13-3-4-14-6-8-16-10(2)12/h3-8H2,1-2H3",OVOUKWFJRHALDD-UHFFFAOYSA-N,?,286.0,101119
101120,111-24-0,111-24-0,BrCCCCCBr,"Pentane, 1,5-dibromo-","Pentane,1,5-dibromo-","1,5-dibromopentane",20185,DTXSID2049395,BrCCCCCBr,InChI=1S/C5H10Br2/c6-4-2-1-3-5-7/h1-5H2,IBODDUNKEPPBKW-UHFFFAOYSA-N,?,222.3,101120
101121,111-25-1,111-25-1,CCCCCCBr,1-BROMOHEXANE,1-Bromohexane,1-bromohexane,20186,DTXSID4021929,CCCCCCBr,"InChI=1S/C6H13Br/c1-2-3-4-5-6-7/h2-6H2,1H3",MNDIARAMWBIKFW-UHFFFAOYSA-N,?,155.3,101121
101123,111-27-3,111-27-3,CCCCCCO,1-HEXANOL,1-Hexanol,hexan-1-ol,20188,DTXSID8021931,CCCCCCO,"InChI=1S/C6H14O/c1-2-3-4-5-6-7/h7H,2-6H2,1H3",ZSIAUFGUXNUGDI-UHFFFAOYSA-N,?,157.6,101123
101124,111-29-5,111-29-5,OCCCCCO,"1,5-PENTANEDIOL","1,5-Pentanediol","pentane-1,5-diol",20189,DTXSID2041256,OCCCCCO,"InChI=1S/C5H12O2/c6-4-2-1-3-5-7/h6-7H,1-5H2",ALQSHHUCVQOPAS-UHFFFAOYSA-N,?,239.0,101124
101125,111-31-9,111-31-9,CCCCCCS,1-HEXANETHIOL,1-Hexanethiol,hexane-1-thiol,20190,DTXSID0051574,CCCCCCS,"InChI=1S/C6H14S/c1-2-3-4-5-6-7/h7H,2-6H2,1H3",PMBXCGGQNSVESQ-UHFFFAOYSA-N,?,151.0,101125
101127,111-36-4,111-36-4,CCCCN=C=O,BUTYL ISOCYANATE,Butyl isocyanate,1-isocyanatobutane,20192,DTXSID6026872,CCCCN=C=O,"InChI=1S/C5H9NO/c1-2-3-4-6-5-7/h2-4H2,1H3",HNHVTXYLRVGMHD-UHFFFAOYSA-N,?,115.0,101127
101128,111-40-0,111-40-0,NCCNCCN,DIETHYLENETRIAMINE,Diethylenetriamine,"N-(2-aminoethyl)ethane-1,2-diamine",20193,DTXSID2025050,NCCNCCN,"InChI=1S/C4H13N3/c5-1-3-7-4-2-6/h7H,1-6H2",RPNUMPOLZDHAAY-UHFFFAOYSA-N,?,207.0,101128
101129,111-41-1,111-41-1,NCCNCCO,2-(2-AMINOETHYLAMINO)ETHANOL,N-(Hydroxyethyl)ethylenediamine,2-[(2-aminoethyl)amino]ethanol,20194,DTXSID7025423,NCCNCCO,"InChI=1S/C4H12N2O/c5-1-2-6-3-4-7/h6-7H,1-5H2",LHIJANUOQQMGNT-UHFFFAOYSA-N,?,239.0,101129
101131,111-43-3,111-43-3,CCCOCCC,DI(N-PROPYL) ETHER,Propyl ether,dipropyl ether,20196,DTXSID8042343,CCCOCCC,"InChI=1S/C6H14O/c1-3-5-7-6-4-2/h3-6H2,1-2H3",POLCUAVZOMRGSN-UHFFFAOYSA-N,?,90.0,101131
101132,111-44-4,111-44-4,ClCCOCCCl,BIS(2-CHLOROETHYL) ETHER,Bis(2-chloroethyl) ether,bis(2-chloroethyl) ether,20197,DTXSID9020168,ClCCOCCCl,InChI=1S/C4H8Cl2O/c5-1-3-7-4-2-6/h1-4H2,ZNSMNVMLTJELDZ-UHFFFAOYSA-N,?,178.5,101132
101133,111-45-5,111-45-5,C=CCOCCO,"ETHANOL, 2-(2-PROPENYLOXY)-","Ethanol, 2-(2-propenyloxy)-",2-prop-2-enoxyethanol,20198,DTXSID0059401,C=CCOCCO,"InChI=1S/C5H10O2/c1-2-4-7-5-3-6/h2,6H,1,3-5H2",GCYHRYNSUGLLMA-UHFFFAOYSA-N,?,158.5,101133
101135,111-47-7,111-47-7,CCCSCCC,DI-N-PROPYLSULFIDE,Propyl sulfide,dipropyl sulfide,20200,DTXSID3021934,CCCSCCC,"InChI=1S/C6H14S/c1-3-5-7-6-4-2/h3-6H2,1-2H3",ZERULLAPCVRMCO-UHFFFAOYSA-N,?,142.9,101135
101136,111-48-8,111-48-8,OCCSCCO,"2,2'-THIOBISETHANOL","2,2'-Thiobisethanol","2,2'-sulfanediyldiethanol",20201,DTXSID6026878,OCCSCCO,"InChI=1S/C4H10O2S/c5-1-3-7-4-2-6/h5-6H,1-4H2",YODZTKMDCQEPHD-UHFFFAOYSA-N,?,282.0,101136
101137,111-49-9,111-49-9,C1CCCCCN1,HEXAMETHYLENEIMINE,Hexamethyleneimine,azepane,20202,DTXSID1026879,C1CCCCCN1,"InChI=1S/C6H13N/c1-2-4-6-7-5-3-1/h7H,1-6H2",ZSIQJIWKELUFRJ-UHFFFAOYSA-N,?,138.0,101137