ChemID,source_casrn,CAS,SMILES,NAME,preferred_name,iupac,MPID,dsstox_substance_id,Canonical_QSARr,InChI_Code_QSARr,InChI Key_QSARr,Salt_Solvent,Salt_Solvent_ID,MP,ID
104952,625-28-5,625-28-5,CC(C)CC#N,"BUTANENITRILE, 3-METHYL-",Isovaleronitrile,3-methylbutanenitrile,31932,DTXSID0021620,CC(C)CC#N,"InChI=1S/C5H9N/c1-5(2)3-4-6/h5H,3H2,1-2H3",QHDRKFYEGYYIIK-UHFFFAOYSA-N,?,,-101.0,104952
104956,625-48-9,625-48-9,[O-][N+](=O)CCO,2-NITROETHANOL,2-Nitroethanol,2-nitroethanol,31936,DTXSID8025751,[O-][N+](=O)CCO,"InChI=1S/C2H5NO3/c4-2-1-3(5)6/h4H,1-2H2",KIPMDPDAFINLIV-UHFFFAOYSA-N,?,,-80.0,104956
104960,625-57-0,625-57-0,CCOC(N)=S,O-ETHYL THIOCARBAMATE,O-Ethyl thiocarbamate,O-ethyl aminomethanethioate,31940,DTXSID3073218,CCOC(N)=S,"InChI=1S/C3H7NOS/c1-2-5-3(4)6/h2H2,1H3,(H2,4,6)",PWZUZQNZVZKCBI-UHFFFAOYSA-N,?,,41.0,104960
104965,625-77-4,625-77-4,CC(=O)NC(C)=O,DIACETAMIDE,Diacetamide,N-Acetylacetamide,31945,DTXSID10211549,CC(=O)NC(C)=O,"InChI=1S/C4H7NO2/c1-3(6)5-4(2)7/h1-2H3,(H,5,6,7)",ZSBDPRIWBYHIAF-UHFFFAOYSA-N,?,,79.0,104965
104969,625-88-7,625-88-7,Ic1ccc(I)[s]1,"2,5-Diiodothiophene","2,5-Diiodothiophene","2,5-Diiodothiophene",31949,DTXSID00211553,Ic1ccc(I)[s]1,InChI=1S/C4H2I2S/c5-3-1-2-4(6)7-3/h1-2H,PNYWRAHWEIOAGK-UHFFFAOYSA-N,?,,41.5,104969
104973,626-01-7,626-01-7,Nc1cc(I)ccc1,"BENZENAMINE, 3-IODO-",m-Iodoaniline,3-Iodoaniline,31953,DTXSID4060812,Nc1cc(I)ccc1,"InChI=1S/C6H6IN/c7-5-2-1-3-6(8)4-5/h1-4H,8H2",FFCSRWGYGMRBGD-UHFFFAOYSA-N,?,,33.0,104973
104978,626-16-4,626-16-4,ClCc1cc(CCl)ccc1,"1,3-(BIS-CHLOROMETHYL)BENZENE","Benzene, 1,3-bis(chloromethyl)-","1,3-Bis(chloromethyl)benzene",31956,DTXSID4060814,ClCc1cc(CCl)ccc1,"InChI=1S/C8H8Cl2/c9-5-7-2-1-3-8(4-7)6-10/h1-4H,5-6H2",GRJWOKACBGZOKT-UHFFFAOYSA-N,?,,34.2,104978
104982,626-22-2,626-22-2,N#CCc1cc(CC#N)ccc1,"Acetonitrile, m-phenylenedi-","Acetonitrile, m-phenylenedi-",2-[3-(cyanomethyl)phenyl]acetonitrile,31960,DTXSID10211645,N#CCc1cc(CC#N)ccc1,"InChI=1S/C10H8N2/c11-6-4-9-2-1-3-10(8-9)5-7-12/h1-3,8H,4-5H2",GRPFZJNUYXIVSL-UHFFFAOYSA-N,?,,33.5,104982
104986,626-38-0,626-38-0,CCCC(C)OC(C)=O,2-PENTANOL ACETATE,Pentan-2-yl acetate,pentan-2-yl acetate,31964,DTXSID8052306,CCCC(C)OC(C)=O,"InChI=1S/C7H14O2/c1-4-5-6(2)9-7(3)8/h6H,4-5H2,1-3H3",GQKZRWSUJHVIPE-UHFFFAOYSA-N,?,,-100.0,104986
104990,626-44-8,626-44-8,Ic1cc(I)cc(I)c1,"1,3,5-TRIIODOBENZENE","Benzene, 1,3,5-triiodo-","1,3,5-TRIIODOBENZENE",31968,DTXSID30211647,Ic1cc(I)cc(I)c1,InChI=1S/C6H3I3/c7-4-1-5(8)3-6(9)2-4/h1-3H,WXLJJIHGDBUBJM-UHFFFAOYSA-N,?,,184.2,104990
104994,626-61-9,626-61-9,Clc1cc[n]cc1,4-CHLOROPYRIDINE,4-Chloropyridine,4-chloropyridine,31971,DTXSID0052671,Clc1cc[n]cc1,InChI=1S/C5H4ClN/c6-5-1-3-7-4-2-5/h1-4H,PVMNPAUTCMBOMO-UHFFFAOYSA-N,?,,-43.5,104994
104998,626-82-4,626-82-4,CCCCCC(=O)OCCCC,N-BUTYL HEXANOATE,"Hexanoic acid, butyl ester",Butyl hexanoate,31975,DTXSID8060824,CCCCCC(=O)OCCCC,"InChI=1S/C10H20O2/c1-3-5-7-8-10(11)12-9-6-4-2/h3-9H2,1-2H3",RPRPDTXKGSIXMD-UHFFFAOYSA-N,?,,-64.3,104998
105002,626-97-1,626-97-1,CCCCC(N)=O,Pentanamide,Pentanamide,Pentanamide,31979,DTXSID3060827,CCCCC(N)=O,"InChI=1S/C5H11NO/c1-2-3-4-5(6)7/h2-4H2,1H3,(H2,6,7)",IPWFJLQDVFKJDU-UHFFFAOYSA-N,?,,106.0,105002
105006,627-05-4,627-05-4,CCCC[N+]([O-])=O,1-NITROBUTANE,1-Nitrobutane,1-nitrobutane,31983,DTXSID8020967,CCCC[N+]([O-])=O,"InChI=1S/C4H9NO2/c1-2-3-4-5(6)7/h2-4H2,1H3",NALZTFARIYUCBY-UHFFFAOYSA-N,?,,-81.33,105006
105010,627-20-3|646-04-8,109-68-2,CC=CCC,"CIS-2-PENTENE, TRANS-2-PENTENE",2-Pentene,?,31987|32199,DTXSID5059375,CC=CCC,"InChI=1S/C5H10/c1-3-5-4-2/h3,5H,4H2,1-2H3/b5-3+",QMMOXUPEWRXHJS-HWKANZROSA-N,?,,-145.8,105010
105014,627-39-4,627-39-4,CCC=NO,Propionaldehyde oxime,,,31991,DTXSID40878700,CCCN=O,"InChI=1S/C3H7NO/c1-2-3-4-5/h2-3H2,1H3",DAGJBILJINSVOD-UHFFFAOYSA-N,?,,40.0,105014
105018,627-67-8,627-67-8,CC(C)CC[N+]([O-])=O,2-Methyl-4-nitrobutane,3-Methyl-1-nitrobutane,3-Methyl-1-nitrobutane,31995,DTXSID90211769,CC(C)CC[N+]([O-])=O,"InChI=1S/C5H11NO2/c1-5(2)3-4-6(7)8/h5H,3-4H2,1-2H3",FEJLPMVSVDSKHJ-UHFFFAOYSA-N,?,,97.0,105018
105023,627-90-7,627-90-7,CCCCCCCCCCC(=O)OCC,ETHYL UNDECANOATE,"Undecanoic acid, ethyl ester",ETHYL UNDECANOATE,31999,DTXSID6060846,CCCCCCCCCCC(=O)OCC,"InChI=1S/C13H26O2/c1-3-5-6-7-8-9-10-11-12-13(14)15-4-2/h3-12H2,1-2H3",IAFQYUQIAOWKSB-UHFFFAOYSA-N,?,,-15.0,105023
105028,628-16-0,628-16-0,C#CCCC#C,"1,5-Hexadiyne","1,5-Hexadiyne","hexa-1,5-diyne",32003,DTXSID6060848,C#CCCC#C,"InChI=1S/C6H6/c1-3-5-6-4-2/h1-2H,5-6H2",YFIBSNDOVCWPBL-UHFFFAOYSA-N,?,,-6.0,105028
105032,628-29-5,628-29-5,CCCCSC,2-THIAHEXANE,"Butane, 1-(methylthio)-",1-methylsulfanylbutane,32007,DTXSID0060852,CCCCSC,"InChI=1S/C5H12S/c1-3-4-5-6-2/h3-5H2,1-2H3",WCXXISMIJBRDQK-UHFFFAOYSA-N,?,,-97.8,105032
105036,628-41-1,628-41-1,C1C=CCC=C1,"1,4-CYCLOHEXADIENE","1,4-Cyclohexadiene","cyclohexa-1,4-diene",32011,DTXSID0060854,C1C=CCC=C1,"InChI=1S/C6H8/c1-2-4-6-5-3-1/h1-2,5-6H,3-4H2",UVJHQYIOXKWHFD-UHFFFAOYSA-N,?,,-49.2,105036
105040,628-71-7,628-71-7,CCCCCC#C,1-HEPTYNE,1-Heptyne,hept-1-yne,32015,DTXSID5060857,CCCCCC#C,"InChI=1S/C7H12/c1-3-5-7-6-4-2/h1H,4-7H2,2H3",YVXHZKKCZYLQOP-UHFFFAOYSA-N,?,,-81.0,105040
105044,628-81-9,628-81-9,CCCCOCC,BUTYL ETHYL ETHER,1-Ethoxybutane,butyl ethyl ether,32019,DTXSID7052311,CCCCOCC,"InChI=1S/C6H14O/c1-3-5-6-7-4-2/h3-6H2,1-2H3",PZHIWRCQKBBTOW-UHFFFAOYSA-N,?,,-124.0,105044
105048,628-97-7,628-97-7,CCCCCCCCCCCCCCCC(=O)OCC,ETHYL PALMITATE,Ethyl hexadecanoate,ethyl hexadecanoate,32023,DTXSID2047511,CCCCCCCCCCCCCCCC(=O)OCC,"InChI=1S/C18H36O2/c1-3-5-6-7-8-9-10-11-12-13-14-15-16-17-18(19)20-4-2/h3-17H2,1-2H3",XIRNKXNNONJFQO-UHFFFAOYSA-N,?,,24.0,105048
105052,629-04-9,629-04-9,CCCCCCCBr,1-BROMOHEPTANE,1-Bromoheptane,1-bromoheptane,32027,DTXSID7022095,CCCCCCCBr,"InChI=1S/C7H15Br/c1-2-3-4-5-6-7-8/h2-7H2,1H3",LSXKDWGTSHCFPP-UHFFFAOYSA-N,?,,-58.0,105052
105056,629-11-8,629-11-8,OCCCCCCO,"1,6-HEXANEDIOL","1,6-Hexanediol","hexane-1,6-diol",32031,DTXSID1027265,OCCCCCCO,"InChI=1S/C6H14O2/c7-5-3-1-2-4-6-8/h7-8H,1-6H2",XXMIOPMDWAUFGU-UHFFFAOYSA-N,?,,45.0,105056
105061,629-23-2,629-23-2,CCCCCCCCCCCC(=O)CC,3-TETRADECANONE,Tetradecan-3-one,Tetradecan-3-one,32035,DTXSID30212073,CCCCCCCCCCCC(=O)CC,"InChI=1S/C14H28O/c1-3-5-6-7-8-9-10-11-12-13-14(15)4-2/h3-13H2,1-2H3",OCHYRSKMMMYUMI-UHFFFAOYSA-N,?,,34.0,105061
105065,629-33-4,629-33-4,CCCCCCOC=O,"Formic acid, hexyl ester","Formic acid, hexyl ester",Hexyl formate,32039,DTXSID8060870,CCCCCCOC=O,"InChI=1S/C7H14O2/c1-2-3-4-5-6-9-7-8/h7H,2-6H2,1H3",OUGPMNMLWKSBRI-UHFFFAOYSA-N,?,,-62.6,105065
105069,629-54-9,629-54-9,CCCCCCCCCCCCCCCC(N)=O,Hexadecanamide,Palmitamide,hexadecanamide,32043,DTXSID8044707,CCCCCCCCCCCCCCCC(N)=O,"InChI=1S/C16H33NO/c1-2-3-4-5-6-7-8-9-10-11-12-13-14-15-16(17)18/h2-15H2,1H3,(H2,17,18)",HSEMFIZWXHQJAE-UHFFFAOYSA-N,?,,107.0,105069
105073,629-63-0,629-63-0,CCCCCCCCCCCCCC#N,Tetradecanenitrile,Tetradecanenitrile,Tetradecanenitrile,32047,DTXSID3060877,CCCCCCCCCCCCCC#N,"InChI=1S/C14H27N/c1-2-3-4-5-6-7-8-9-10-11-12-13-14-15/h2-13H2,1H3",MLRCLPRHEOPXLL-UHFFFAOYSA-N,?,,19.0,105073
105077,629-72-1,629-72-1,CCCCCCCCCCCCCCCBr,1-BROMOPENTADECANE,"Pentadecane,1-bromo-",1-bromopentadecane,32050,DTXSID8049339,CCCCCCCCCCCCCCCBr,"InChI=1S/C15H31Br/c1-2-3-4-5-6-7-8-9-10-11-12-13-14-15-16/h2-15H2,1H3",JKOTZBXSNOGCIF-UHFFFAOYSA-N,?,,19.0,105077
105081,629-78-7,629-78-7,CCCCCCCCCCCCCCCCC,HEPTADECANE,Heptadecane,heptadecane,32054,DTXSID7047061,CCCCCCCCCCCCCCCCC,"InChI=1S/C17H36/c1-3-5-7-9-11-13-15-17-16-14-12-10-8-6-4-2/h3-17H2,1-2H3",NDJKXXJCMXVBJW-UHFFFAOYSA-N,?,,22.0,105081
105085,629-89-0,629-89-0,CCCCCCCCCCCCCCCCC#C,Octadec-1-yne,Octadecyne,octadec-1-yne,32058,DTXSID90212079,CCCCCCCCCCCCCCCCC#C,"InChI=1S/C18H34/c1-3-5-7-9-11-13-15-17-18-16-14-12-10-8-6-4-2/h1H,4-18H2,2H3",IYDNQWWOZQLMRH-UHFFFAOYSA-N,?,,22.5,105085
105089,629-94-7,629-94-7,CCCCCCCCCCCCCCCCCCCCC,HENEICOSANE,Heneicosane,henicosane,32062,DTXSID9047097,CCCCCCCCCCCCCCCCCCCCC,"InChI=1S/C21H44/c1-3-5-7-9-11-13-15-17-19-21-20-18-16-14-12-10-8-6-4-2/h3-21H2,1-2H3",FNAZRRHPUDJQCJ-UHFFFAOYSA-N,?,,40.5,105089
105093,629-99-2,629-99-2,CCCCCCCCCCCCCCCCCCCCCCCCC,PENTACOSANE,Pentacosane,PENTACOSANE,32066,DTXSID2060882,CCCCCCCCCCCCCCCCCCCCCCCCC,"InChI=1S/C25H52/c1-3-5-7-9-11-13-15-17-19-21-23-25-24-22-20-18-16-14-12-10-8-6-4-2/h3-25H2,1-2H3",YKNWIILGEFFOPE-UHFFFAOYSA-N,?,,54.0,105093
105097,630-04-6,630-04-6,CCCCCCCCCCCCCCCCCCCCCCCCCCCCCCC,HENTRIACONTANE,Hentriacontane,Hentriacontane,32070,DTXSID0075443,CCCCCCCCCCCCCCCCCCCCCCCCCCCCCCC,"InChI=1S/C31H64/c1-3-5-7-9-11-13-15-17-19-21-23-25-27-29-31-30-28-26-24-22-20-18-16-14-12-10-8-6-4-2/h3-31H2,1-2H3",IUJAMGNYPWYUPM-UHFFFAOYSA-N,?,,67.9,105097
105102,630-16-0,630-16-0,BrCC(Br)(Br)Br,"1,1,1,2-tetrabromoethane","1,1,1,2-Tetrabromoethane","1,1,1,2-tetrabromoethane",32074,DTXSID6026082,BrCC(Br)(Br)Br,"InChI=1S/C2H2Br4/c3-1-2(4,5)6/h1H2",RVHSTXJKKZWWDQ-UHFFFAOYSA-N,?,,0.0,105102
105106,630-25-1,630-25-1,ClC(Cl)(Br)C(Cl)(Cl)Br,"1,2-Dibromo-1,1,2,2-tetrachloroethane","1,2-Dibromotetrachloroethane","1,2-Dibromo-1,1,2,2-tetrachloroethane",32078,DTXSID20212209,ClC(Cl)(Br)C(Cl)(Cl)Br,"InChI=1S/C2Br2Cl4/c3-1(5,6)2(4,7)8",WJUKOGPNGRUXMG-UHFFFAOYSA-N,?,,202.5,105106
105110,,631-01-6,CC1(C)CC[C@]2([C@@H](C1)C1=CC[C@H]3[C@@](C)(CC[C@H]4[C@](C)(C=O)[C@@H](O)CC[C@]34C)[C@]1(C)C[C@H]2O)C(O)=O,Quillaic Acid,,,32082,,CC1(C)CCC2(C(C1)C1=CCC3C(C)(CCC4C(C)(C=O)C(O)CCC34C)C1(C)CC2O)C(O)=O,"InChI=1S/C30H46O5/c1-25(2)13-14-30(24(34)35)19(15-25)18-7-8-21-26(3)11-10-22(32)27(4,17-31)20(26)9-12-28(21,5)29(18,6)16-23(30)33/h7,17,19-23,32-33H,8-16H2,1-6H3,(H,34,35)",MQUFAARYGOUYEV-UHFFFAOYSA-N,?,,294.0,105110
105114,632-05-3,NOCAS_870736,CC(Br)C(Br)CBr,"Butane, 1,2,3-tribromo-",,,32086,DTXSID10870736,CC(Br)C(Br)CBr,"InChI=1S/C4H7Br3/c1-3(6)4(7)2-5/h3-4H,2H2,1H3",HKTNRDJXZCCMGH-UHFFFAOYSA-N,?,,-19.0,105114
105118,632-22-4,632-22-4,CN(C)C(=O)N(C)C,TETRAMETHYLUREA,Tetramethylurea,"1,1,3,3-Tetramethylurea",32090,DTXSID1060893,CN(C)C(=O)N(C)C,InChI=1S/C5H12N2O/c1-6(2)5(8)7(3)4/h1-4H3,AVQQQNCBBIEMEU-UHFFFAOYSA-N,?,,-1.2,105118
105122,632-51-9,632-51-9,c1ccccc1C(=C(c1ccccc1)c1ccccc1)c1ccccc1,"Benzene, 1,1',1'',1'''-(1,2-ethenediylidene)tetr","Benzene, 1,1',1'',1'''-(1,2-ethenediylidene)tetrakis-","1,2,2-tri(phenyl)ethenylbenzene",32094,DTXSID1060895,c1ccccc1C(=C(c1ccccc1)c1ccccc1)c1ccccc1,InChI=1S/C26H20/c1-5-13-21(14-6-1)25(22-15-7-2-8-16-22)26(23-17-9-3-10-18-23)24-19-11-4-12-20-24/h1-20H,JLZUZNKTTIRERF-UHFFFAOYSA-N,?,,225.0,105122
105126,632-80-4,632-80-4,O=C1OC(=O)c2c1c(I)c(I)c(I)c2I,"1,3-Isobenzofurandione, 4,5,6,7-tetraiodo-","1,3-Isobenzofurandione, 4,5,6,7-tetraiodo-","4,5,6,7-tetraiodo-2-benzofuran-1,3-dione",32098,DTXSID1060897,O=C1OC(=O)c2c1c(I)c(I)c(I)c2I,InChI=1S/C8I4O3/c9-3-1-2(8(14)15-7(1)13)4(10)6(12)5(3)11,UHIMKEGZFOQVHV-UHFFFAOYSA-N,?,,327.5,105126
105130,634-36-6,634-36-6,COc1c(cccc1OC)OC,"BENZENE, 1,2,3-TRIMETHOXY-","Benzene, 1,2,3-trimethoxy-","1,2,3-Trimethoxybenzene",32102,DTXSID1060899,COc1c(cccc1OC)OC,"InChI=1S/C9H12O3/c1-10-7-5-4-6-8(11-2)9(7)12-3/h4-6H,1-3H3",CRUILBNAQILVHZ-UHFFFAOYSA-N,?,,48.5,105130
105134,634-68-4,634-68-4,Ic1ccc(I)c(I)c1I,"1,2,3,4-TETRAIODOBENZENE","1,2,3,4-TETRAIODOBENZENE",C6H2I4,32106,DTXSID90274511,Ic1ccc(I)c(I)c1I,InChI=1S/C6H2I4/c7-3-1-2-4(8)6(10)5(3)9/h1-2H,BHASHBRUGOYKMC-UHFFFAOYSA-N,?,,136.0,105134
105138,634-92-4,NOCAS_870738,Ic1cc(I)c(I)c(I)c1,"1,2,3,5-TETRAIODOBENZENE",,,32110,DTXSID30870738,Ic1cc(I)c(I)c(I)c1,InChI=1S/C6H2I4/c7-3-1-4(8)6(10)5(9)2-3/h1-2H,PPWNVLCSCOYKMQ-UHFFFAOYSA-N,?,,148.0,105138
105142,635-11-0,NOCAS_870739,CC(C)c1cc(C(C)C)c(cc1C(C)C)C(C)C,"BENZENE, 1,2,4,5-TETRAKIS(1-METHYLETHYL)-",,,32114,DTXSID90870739,CC(C)c1cc(C(C)C)c(cc1C(C)C)C(C)C,"InChI=1S/C18H30/c1-11(2)15-9-17(13(5)6)18(14(7)8)10-16(15)12(3)4/h9-14H,1-8H3",ROXLYQQDLJJEBE-UHFFFAOYSA-N,?,,118.4,105142
105146,635-46-1,635-46-1,C1CCNc2ccccc21,"1,2,3,4-TETRAHYDROQUINOLINE","1,2,3,4-Tetrahydroquinoline","1,2,3,4-Tetrahydroquinoline",32118,DTXSID8060903,C1CCNc2ccccc21,"InChI=1S/C9H11N/c1-2-6-9-8(4-1)5-3-7-10-9/h1-2,4,6,10H,3,5,7H2",LBUJPTNKIBCYBY-UHFFFAOYSA-N,?,,20.0,105146
105150,635-93-8,635-93-8,Oc1ccc(Cl)cc1C=O,"Benzaldehyde, 5-chloro-2-hydroxy-",5-Chlorosalicylaldehyde,5-chloro-2-hydroxybenzaldehyde,32122,DTXSID7022099,Oc1ccc(Cl)cc1C=O,"InChI=1S/C7H5ClO2/c8-6-1-2-7(10)5(3-6)4-9/h1-4,10H",FUGKCSRLAQKUHG-UHFFFAOYSA-N,?,,100.3,105150
105154,636-28-2,636-28-2,Brc1cc(Br)c(Br)cc1Br,"1,2,4,5-TETRABROMOBENZENE","1,2,4,5-Tetrabromobenzene","1,2,4,5-Tetrabromobenzene",32126,DTXSID7060910,Brc1cc(Br)c(Br)cc1Br,InChI=1S/C6H2Br4/c7-3-1-4(8)6(10)2-5(3)9/h1-2H,QCKHVNQHBOGZER-UHFFFAOYSA-N,?,,182.0,105154
105158,636-46-4,NOCAS_862332,OC(=O)c1cc(ccc1O)C(O)=O,4-Hydroxyisophthalic acid,,,32130,DTXSID50862332,OC(=O)c1cc(ccc1O)C(O)=O,"InChI=1S/C8H6O5/c9-6-2-1-4(7(10)11)3-5(6)8(12)13/h1-3,9H,(H,10,11)(H,12,13)",BCEQKAQCUWUNML-UHFFFAOYSA-N,?,,310.0,105158
105163,637-03-6,637-03-6,O=[As]c1ccccc1,Oxophenylarsine,Phenylarsine oxide,oxo(phenyl)arsane,32134,DTXSID5042249,O=[As]c1ccccc1,InChI=1S/C6H5AsO/c8-7-6-4-2-1-3-5-6/h1-5H,BQVCCPGCDUSGOE-UHFFFAOYSA-N,?,,145.0,105163
105168,637-55-8,637-55-8,CCCCCCCCCCCCCCCCCC(=O)Oc1ccccc1,"Octadecanoic acid, phenyl ester","Octadecanoic acid, phenyl ester",phenyl octadecanoate,32138,DTXSID1060922,CCCCCCCCCCCCCCCCCC(=O)Oc1ccccc1,"InChI=1S/C24H40O2/c1-2-3-4-5-6-7-8-9-10-11-12-13-14-15-19-22-24(25)26-23-20-17-16-18-21-23/h16-18,20-21H,2-15,19,22H2,1H3",NUMNZKICGJJSHN-UHFFFAOYSA-N,?,,52.0,105168
105172,637-92-3,637-92-3,CCOC(C)(C)C,ETHYL T-BUTYL ETHER,2-Methyl-2-ethoxypropane,tert-butyl ethyl ether,32142,DTXSID0025604,CCOC(C)(C)C,"InChI=1S/C6H14O/c1-5-7-6(2,3)4/h5H2,1-4H3",NUMQCACRALPSHD-UHFFFAOYSA-N,?,,-94.0,105172
105176,638-04-0|2207-03-6,638-04-0|2207-03-6,"C[C@@H]1C[C@H](C)CCC1 |&1:1,3|","1,3-DIMETHYLCYCLOHEXANE (CIS), 1,3-DIMETHYLCYCLOHEXANE (TRANS)","cis-1,3-Dimethylcyclohexane",C8H16,32145|33524,DTXSID30858738|DTXSID70858737,CC1CC(C)CCC1,"InChI=1S/C8H16/c1-7-4-3-5-8(2)6-7/h7-8H,3-6H2,1-2H3",SGVUHPSBDNVHKL-UHFFFAOYSA-N,?,,-82.85,105176
105180,638-20-0,638-20-0,CC(=O)NC(=O)NC(C)=O,"1,3-DIACETYLUREA","N,N'-Carbonylbis(acetamide)",N-(acetylcarbamoyl)acetamide,32149,DTXSID10213240,CC(=O)NC(=O)NC(C)=O,"InChI=1S/C5H8N2O3/c1-3(8)6-5(10)7-4(2)9/h1-2H3,(H2,6,7,8,9,10)",UJQLDFMZDSDZEY-UHFFFAOYSA-N,?,,154.5,105180
105185,638-45-9,638-45-9,CCCCCCI,1-IODOHEXANE,"Hexane,1-iodo-",1-iodohexane,32153,DTXSID2049341,CCCCCCI,"InChI=1S/C6H13I/c1-2-3-4-5-6-7/h2-6H2,1H3",ANOOTOPTCJRUPK-UHFFFAOYSA-N,?,,-74.2,105185
105190,638-65-3,638-65-3,CCCCCCCCCCCCCCCCCC#N,Octadecanenitrile,Octadecanenitrile,octadecanenitrile,32157,DTXSID4027280,CCCCCCCCCCCCCCCCCC#N,"InChI=1S/C18H35N/c1-2-3-4-5-6-7-8-9-10-11-12-13-14-15-16-17-18-19/h2-17H2,1H3",RHSBIGNQEIPSCT-UHFFFAOYSA-N,?,,41.0,105190
105194,638-79-9,638-79-9,FC(F)(F)C(F)(F)C(F)(F)C(F)(F)C(F)(F)I,"Pentane, undecafluoro-5-iodo-","Pentane, 1,1,1,2,2,3,3,4,4,5,5-undecafluoro-5-iodo-","1,1,1,2,2,3,3,4,4,5,5-undecafluoro-5-iodopentane",32161,DTXSID5060936,FC(F)(F)C(F)(F)C(F)(F)C(F)(F)C(F)(F)I,"InChI=1S/C5F11I/c6-1(7,2(8,9)4(12,13)14)3(10,11)5(15,16)17",KCEJJSGJNCSQFI-UHFFFAOYSA-N,?,,-50.0,105194
105199,640-19-7,640-19-7,NC(=O)CF,FLUOROACETAMIDE,2-Fluoroacetamide,2-fluoroacetamide,32165,DTXSID2034255,NC(=O)CF,"InChI=1S/C2H4FNO/c3-1-2(4)5/h1H2,(H2,4,5)",FVTWJXMFYOXOKK-UHFFFAOYSA-N,?,,108.0,105199
105204,641-91-8,641-91-8,Cc1cccc2c1ccc(C)c2C,"1,2,5-Trimethylnaphthalene","1,2,5-Trimethylnaphthalene","1,2,5-Trimethylnaphthalene",32170,DTXSID60214308,Cc1cccc2c1ccc(C)c2C,"InChI=1S/C13H14/c1-9-7-8-12-10(2)5-4-6-13(12)11(9)3/h4-8H,1-3H3",KTDQNLIDLMRHCJ-UHFFFAOYSA-N,?,,33.5,105204
105211,643-58-3,28652-72-4,Cc1ccccc1-c1ccccc1,2-METHYLBIPHENYL,"Methyl biphenyl, mixed isomers",2-methylbiphenyl,32175,DTXSID0025575,Cc1ccccc1-c1ccccc1,"InChI=1S/C13H12/c1-11-7-5-6-10-13(11)12-8-3-2-4-9-12/h2-10H,1H3",ALLIZEAXNXSFGD-UHFFFAOYSA-N,?,,-0.2,105211
105215,644-08-6,644-08-6,Cc1ccc(cc1)-c1ccccc1,"4-METHYL-1,1'-BIPHENYL",4-Phenyltoluene,4-methylbiphenyl,32179,DTXSID4047177,Cc1ccc(cc1)-c1ccccc1,"InChI=1S/C13H12/c1-11-7-9-13(10-8-11)12-5-3-2-4-6-12/h2-10H,1H3",ZZLCFHIKESPLTH-UHFFFAOYSA-N,?,,49.5,105215
105219,644-62-2,644-62-2,Cc1ccc(Cl)c(Nc2ccccc2C(O)=O)c1Cl,MECLOFENAMIC A,Meclofenamic acid,"2-[(2,6-dichloro-3-methylphenyl)amino]benzoic acid",32183,DTXSID0048559,Cc1ccc(Cl)c(Nc2ccccc2C(O)=O)c1Cl,"InChI=1S/C14H11Cl2NO2/c1-8-6-7-10(15)13(12(8)16)17-11-5-3-2-4-9(11)14(18)19/h2-7,17H,1H3,(H,18,19)",SBDNJUWAMKYJOX-UHFFFAOYSA-N,?,,257.0,105219
105226,645-05-6,645-05-6,CN(C)c1[n]c([n]c([n]1)N(C)C)N(C)C,HEXAMETHYL MELAMINE,Hexamethylmelamine,"N,N,N',N',N'',N''-hexamethyl-1,3,5-triazine-2,4,6-triamine",32188,DTXSID4022579,CN(C)c1[n]c([n]c([n]1)N(C)C)N(C)C,InChI=1S/C9H18N6/c1-13(2)7-10-8(14(3)4)12-9(11-7)15(5)6/h1-6H3,UUVWYPNAQBNQJQ-UHFFFAOYSA-N,?,,173.0,105226
105232,645-36-3,645-36-3,CCOC(CN)OCC,"Ethanamine, 2,2-diethoxy-","Ethanamine, 2,2-diethoxy-","2,2-diethoxyethanamine",32192,DTXSID4060945,CCOC(CN)OCC,"InChI=1S/C6H15NO2/c1-3-8-6(5-7)9-4-2/h6H,3-5,7H2,1-2H3",HJKLEAOXCZIMPI-UHFFFAOYSA-N,?,,-78.0,105232
105237,645-59-0,645-59-0,N#CCCc1ccccc1,BENZYLACETONITRILE,Benzenepropanenitrile,3-Phenylpropanenitrile,32196,DTXSID4060949,N#CCCc1ccccc1,"InChI=1S/C9H9N/c10-8-4-7-9-5-2-1-3-6-9/h1-3,5-6H,4,7H2",ACRWYXSKEHUQDB-UHFFFAOYSA-N,?,,-1.0,105237
105242,646-07-1,646-07-1,CC(C)CCC(O)=O,4-METHYLPENTANOIC ACID,"Pentanoic acid, 4-methyl-",4-Methylpentanoic acid,32201,DTXSID8060951,CC(C)CCC(O)=O,"InChI=1S/C6H12O2/c1-5(2)3-4-6(7)8/h5H,3-4H2,1-2H3,(H,7,8)",FGKJLKRYENPLQH-UHFFFAOYSA-N,?,,-33.0,105242
105247,646-30-0,646-30-0,CCCCCCCCCCCCCCCCCCC(O)=O,Nonadecanoic acid,Nonadecanoic acid,NONADECANOIC ACID,32205,DTXSID3060954,CCCCCCCCCCCCCCCCCCC(O)=O,"InChI=1S/C19H38O2/c1-2-3-4-5-6-7-8-9-10-11-12-13-14-15-16-17-18-19(20)21/h2-18H2,1H3,(H,20,21)",ISYWECDDZWTKFF-UHFFFAOYSA-N,?,,69.4,105247
105251,652-12-0,652-12-0,O=C1OC(=O)c2c1c(F)c(F)c(F)c2F,Tetrafluorophthalic anhydride,Tetrafluorophthalic anhydride,"4,5,6,7-tetrafluoro-2-benzofuran-1,3-dione",32209,DTXSID30215504,O=C1OC(=O)c2c1c(F)c(F)c(F)c2F,InChI=1S/C8F4O3/c9-3-1-2(8(14)15-7(1)13)4(10)6(12)5(3)11,BJDDKZDZTHIIJB-UHFFFAOYSA-N,?,,95.0,105251
105255,652-32-4,652-32-4,Cc1c(F)c(F)c(C(O)=O)c(F)c1F,"BENZOIC ACID, 2,3,5,6-TETRAFLUORO-4-METHYL-","p-Toluic acid, 2,3,5,6-tetrafluoro-","2,3,5,6-Tetrafluoro-4-methylbenzoic acid",32213,DTXSID70215508,Cc1c(F)c(F)c(C(O)=O)c(F)c1F,"InChI=1S/C8H4F4O2/c1-2-4(9)6(11)3(8(13)14)7(12)5(2)10/h1H3,(H,13,14)",COOULIOYEXBFDT-UHFFFAOYSA-N,?,,174.0,105255
105261,655-05-0,NOCAS_862359,CN(C)C1=NC(=O)C(O1)c1ccccc1,Thozalinone,,,32218,DTXSID70862359,CN(C)C1=NC(=O)C(O1)c1ccccc1,"InChI=1S/C11H12N2O2/c1-13(2)11-12-10(14)9(15-11)8-6-4-3-5-7-8/h3-7,9H,1-2H3",JJSHYECKYLDYAR-UHFFFAOYSA-N,?,,134.5,105261
105268,661-19-8,661-19-8,CCCCCCCCCCCCCCCCCCCCCCO,1-Docosanol,1-Docosanol,docosan-1-ol,32222,DTXSID4027286,CCCCCCCCCCCCCCCCCCCCCCO,"InChI=1S/C22H46O/c1-2-3-4-5-6-7-8-9-10-11-12-13-14-15-16-17-18-19-20-21-22-23/h23H,2-22H2,1H3",NOPFSRXAKWQILS-UHFFFAOYSA-N,?,,72.5,105268
105278,672-89-9,672-89-9,CC1=CC(=CC(=O)O1)OC,"2H-Pyran-2-one, 4-methoxy-6-methyl-","2H-Pyran-2-one, 4-methoxy-6-methyl-",4-methoxy-6-methylpyran-2-one,32230,DTXSID10217485,CC1=CC(=CC(=O)O1)OC,"InChI=1S/C7H8O3/c1-5-3-6(9-2)4-7(8)10-5/h3-4H,1-2H3",MTZAUZNQAMNFME-UHFFFAOYSA-N,?,,86.0,105278
105282,674-82-8,674-82-8,C=C1CC(=O)O1,DIKETENE,Diketene,4-methylideneoxetan-2-one,32234,DTXSID9027289,C=C1CC(=O)O1,InChI=1S/C4H4O2/c1-3-2-4(5)6-3/h1-2H2,WASQWSOJHCZDFK-UHFFFAOYSA-N,?,,-6.5,105282
105286,676-97-1,676-97-1,CP(=O)(Cl)Cl,Methyl phosphonic dichloride,Methylphosphonic dichloride,dichlorophosphorylmethane,32238,DTXSID6060979,CP(=O)(Cl)Cl,"InChI=1S/CH3Cl2OP/c1-5(2,3)4/h1H3",SCLFRABIDYGTAZ-UHFFFAOYSA-N,?,,36.0,105286
105290,679-99-2,NOCAS_870748,FC(F)C(F)(F)C(F)Cl,"Propane, 1-chloro-1,2,2,3,3-pentafluoro-",,,32242,DTXSID80870748,FC(F)C(F)(F)C(F)Cl,"InChI=1S/C3H2ClF5/c4-1(5)3(8,9)2(6)7/h1-2H",FXSNEEBOGAOVIM-UHFFFAOYSA-N,?,,85.0,105290
105295,683-57-8,683-57-8,NC(=O)CBr,BROMOACETAMIDE,Bromoacetamide,2-bromoacetamide,32245,DTXSID3058456,NC(=O)CBr,"InChI=1S/C2H4BrNO/c3-1-2(4)5/h1H2,(H2,4,5)",JUIKUQOUMZUFQT-UHFFFAOYSA-N,?,,89.0,105295