ChemID,source_casrn,CAS,SMILES,NAME,preferred_name,iupac,MPID,dsstox_substance_id,Canonical_QSARr,InChI_Code_QSARr,InChI Key_QSARr,Salt_Solvent,Salt_Solvent_ID,MP,ID
103965,540-84-1,540-84-1,CC(C)CC(C)(C)C,"2,2,4-TRIMETHYLPENTANE","2,2,4-Trimethylpentane","2,2,4-trimethylpentane",31047,DTXSID7024370,CC(C)CC(C)(C)C,"InChI=1S/C8H18/c1-7(2)6-8(3,4)5/h7H,6H2,1-5H3",NHTMVDHEPJAVLT-UHFFFAOYSA-N,?,,-107.3,103965
103969,541-05-9,541-05-9,C[Si]1(C)O[Si](C)(C)O[Si](C)(C)O1,HEXAMETHYLCYCLOTRISILOXANE,Hexamethylcyclotrisiloxane,"2,2,4,4,6,6-hexamethyl-1,3,5,2,4,6-trioxatrisilinane",31051,DTXSID6027185,C[Si]1(C)O[Si](C)(C)O[Si](C)(C)O1,"InChI=1S/C6H18O3Si3/c1-10(2)7-11(3,4)9-12(5,6)8-10/h1-6H3",HTDJPCNNEPUOOQ-UHFFFAOYSA-N,?,,64.5,103969
103974,541-35-5,541-35-5,CCCC(N)=O,BUTYRAMIDE,Butanamide,Butanamide,31055,DTXSID8060248,CCCC(N)=O,"InChI=1S/C4H9NO/c1-2-3-4(5)6/h2-3H2,1H3,(H2,5,6)",DNSISZSEWVHGLH-UHFFFAOYSA-N,?,,114.8,103974
103978,541-48-0,541-48-0,CC(N)CC(O)=O,"Butanoic acid, 3-amino-",beta-Aminobutyric acid,3-aminobutanoic acid,31059,DTXSID4040975,CC(N)CC(O)=O,"InChI=1S/C4H9NO2/c1-3(5)2-4(6)7/h3H,2,5H2,1H3,(H,6,7)",OQEBBZSWEGYTPG-UHFFFAOYSA-N,?,,193.0,103978
103983,541-88-8,NOCAS_870600,O=C(CCl)OC(=O)CCl,CHLOROACETIC ANHYDRIDE,,,31063,DTXSID60870600,O=C(CCl)OC(=O)CCl,InChI=1S/C4H4Cl2O3/c5-1-3(7)9-4(8)2-6/h1-2H2,PNVPNXKRAUBJGW-UHFFFAOYSA-N,?,,46.0,103983
103987,542-28-9,542-28-9,O=C1CCCCO1,D-VALEROLACTONE,Tetrahydro-2H-pyran-2-one,tetrahydro-2H-pyran-2-one,31067,DTXSID6044438,O=C1CCCCO1,InChI=1S/C5H8O2/c6-5-3-1-2-4-7-5/h1-4H2,OZJPLYNZGCXSJM-UHFFFAOYSA-N,?,,-12.5,103987
103991,542-55-2,542-55-2,CC(C)COC=O,ISOBUTYL FORMATE,"Formic acid, 2-methylpropyl ester",2-Methylpropyl formate,31071,DTXSID7060257,CC(C)COC=O,"InChI=1S/C5H10O2/c1-5(2)3-7-4-6/h4-5H,3H2,1-2H3",AVMSWPWPYJVYKY-UHFFFAOYSA-N,?,,-95.8,103991
103995,542-78-9,542-78-9,O=CCC=O,Malonaldehyde,Malonaldehyde,Propanedial,31075,DTXSID90202556,O=CCC=O,"InChI=1S/C3H4O2/c4-2-1-3-5/h2-3H,1H2",WSMYVTOQOOLQHP-UHFFFAOYSA-N,?,,72.0,103995
103999,542-91-6,NOCAS_870601,CC[SiH2]CC,"Silane, diethyl-",,,31079,DTXSID20870601,CC[SiH2]CC,"InChI=1S/C4H12Si/c1-3-5-4-2/h3-5H2,1-2H3",UCXUKTLCVSGCNR-UHFFFAOYSA-N,?,,-134.3,103999
104004,543-28-2,543-28-2,CC(C)COC(N)=O,"Carbamic acid, 2-methylpropyl ester","Carbamic acid, 2-methylpropyl ester",2-methylpropyl carbamate,31083,DTXSID6060262,CC(C)COC(N)=O,"InChI=1S/C5H11NO2/c1-4(2)3-8-5(6)7/h4H,3H2,1-2H3,(H2,6,7)",BRUZQRBVNRKLJG-UHFFFAOYSA-N,?,,67.0,104004
104010,544-00-3,544-00-3,CC(C)CCNCCC(C)C,"1-Butanamine, 3-methyl-N-(3-methylbutyl)-","1-Butanamine, 3-methyl-N-(3-methylbutyl)-",3-methyl-N-(3-methylbutyl)butan-1-amine,31087,DTXSID1060263,CC(C)CCNCCC(C)C,"InChI=1S/C10H23N/c1-9(2)5-7-11-8-6-10(3)4/h9-11H,5-8H2,1-4H3",SPVVMXMTSODFPU-UHFFFAOYSA-N,?,,-44.0,104010
104014,544-25-2,544-25-2,C1C=CC=CC=C1,CYCLOHEPTATRIENE,"1,3,5-Cycloheptatriene","cyclohepta-1,3,5-triene",31091,DTXSID5073909,C1C=CC=CC=C1,"InChI=1S/C7H8/c1-2-4-6-7-5-3-1/h1-6H,7H2",CHVJITGCYZJHLR-UHFFFAOYSA-N,?,,-79.5,104014
104018,544-47-8,544-47-8,Cl.NC(=N)SCc1ccc(Cl)cc1,p-Chlorobenzylpseudothiuronium Chloride,"Carbamimidothioic acid, (4-chlorophenyl)methyl ester, monohydrochloride",,31095,DTXSID0060270,NC(=N)SCc1ccc(Cl)cc1,"InChI=1S/C8H9ClN2S/c9-7-3-1-6(2-4-7)5-12-8(10)11/h1-4H,5H2,(H3,10,11)",YOCWIHYZDHPSHD-UHFFFAOYSA-N,Cl,18179.0,197.0,104018
104022,544-73-0,NOCAS_870604,CCCCC=CC=CC=CCCCCCCCC(O)=O,"Octadeca-9,11,13-trienoic acid",,,31099,DTXSID00870604,CCCCC=CC=CC=CCCCCCCCC(O)=O,"InChI=1S/C18H30O2/c1-2-3-4-5-6-7-8-9-10-11-12-13-14-15-16-17-18(19)20/h5-10H,2-4,11-17H2,1H3,(H,19,20)/b6-5+,8-7+,10-9+",CUXYLFPMQMFGPL-SUTYWZMXSA-N,?,,71.5,104022
104027,545-06-2,545-06-2,N#CC(Cl)(Cl)Cl,TRICHLOROACETONITRILE,Trichloroacetonitrile,trichloroacetonitrile,31103,DTXSID0021672,N#CC(Cl)(Cl)Cl,"InChI=1S/C2Cl3N/c3-2(4,5)1-6",DRUIESSIVFYOMK-UHFFFAOYSA-N,?,,-42.0,104027
104032,545-90-4,545-90-4,CC(CC(C(O)CC)(c1ccccc1)c1ccccc1)N(C)C,Dimepheptanol,Dimepheptanol,"6-dimethylamino-4,4-di(phenyl)heptan-3-ol",31107,DTXSID40110031,CC(CC(C(O)CC)(c1ccccc1)c1ccccc1)N(C)C,"InChI=1S/C21H29NO/c1-5-20(23)21(16-17(2)22(3)4,18-12-8-6-9-13-18)19-14-10-7-11-15-19/h6-15,17,20,23H,5,16H2,1-4H3",QIRAYNIFEOXSPW-UHFFFAOYSA-N,?,,127.0,104032
104036,546-45-2,546-45-2,C[Si]1(O[Si](C)(O[Si](C)(O1)c1ccccc1)c1ccccc1)c1ccccc1,"Cyclotrisiloxane, 2,4,6-trimethyl-2,4,6-tripheny","Cyclotrisiloxane, 2,4,6-trimethyl-2,4,6-triphenyl-","2,4,6-trimethyl-2,4,6-tri(phenyl)-1,3,5,2,4,6-trioxatrisilinane",31111,DTXSID0060272,C[Si]1(O[Si](C)(O[Si](C)(O1)c1ccccc1)c1ccccc1)c1ccccc1,"InChI=1S/C21H24O3Si3/c1-25(19-13-7-4-8-14-19)22-26(2,20-15-9-5-10-16-20)24-27(3,23-25)21-17-11-6-12-18-21/h4-18H,1-3H3",HAURRGANAANPSQ-UHFFFAOYSA-N,?,,100.0,104036
104042,547-25-1,547-25-1,O[C@H](CO)[C@@H](O)[C@H](O[C@H]1O[C@H](CO)[C@@H](O)[C@H](O)[C@H]1O)C(=O)CO,"D-Fructose, 3-O-.alpha.-D-glucopyranosyl-",,,31113,DTXSID90876998,OC(CO)C(O)C(OC1OC(CO)C(O)C(O)C1O)C(=O)CO,"InChI=1S/C12H22O11/c13-1-4(16)7(18)11(5(17)2-14)23-12-10(21)9(20)8(19)6(3-15)22-12/h4,6-16,18-21H,1-3H2",RULSWEULPANCDV-UHFFFAOYSA-N,?,,168.0,104042
104049,548-39-0,548-39-0,O=C1C=Cc2cccc3cccc1c23,Perinaphthenone,Phenalen-1-one,Phenalen-1-one,31118,DTXSID20203278,O=C1C=Cc2cccc3cccc1c23,InChI=1S/C13H8O/c14-12-8-7-10-4-1-3-9-5-2-6-11(12)13(9)10/h1-8H,WWBGWPHHLRSTFI-UHFFFAOYSA-N,?,,154.0,104049
104053,548-76-5,548-76-5,COc1cc(cc(O)c1OC)C1=COc2cc(O)c(OC)c(O)c2C1=O,Irigenin,Irigenin,"5,7-dihydroxy-3-(3-hydroxy-4,5-dimethoxyphenyl)-6-methoxychromen-4-one",31122,DTXSID90203285,COc1cc(cc(O)c1OC)C1=COc2cc(O)c(OC)c(O)c2C1=O,"InChI=1S/C18H16O8/c1-23-13-5-8(4-10(19)17(13)24-2)9-7-26-12-6-11(20)18(25-3)16(22)14(12)15(9)21/h4-7,19-20,22H,1-3H3",TUGWPJJTQNLKCL-UHFFFAOYSA-N,?,,185.0,104053
104057,550-28-7,550-28-7,CN1C(=O)N(CC(C)=C)C(N)=CC1=O,Amisometradine,Amisometradine [INN:BAN:NF],"6-amino-3-methyl-1-(2-methylprop-2-enyl)pyrimidine-2,4-dione",31126,DTXSID40203538,CN1C(=O)N(CC(C)=C)C(N)=CC1=O,"InChI=1S/C9H13N3O2/c1-6(2)5-12-7(10)4-8(13)11(3)9(12)14/h4H,1,5,10H2,2-3H3",FXNYSZHYMGWWEZ-UHFFFAOYSA-N,?,,175.0,104057
104062,550-83-4,550-83-4,Cl.CCCOc1cc(N)ccc1C(=O)OCCN(CC)CC,Propoxycaine Hydrochloride,Propoxycaine hydrochloride,2-(diethylamino)ethyl 4-amino-2-propoxybenzoate hydrochloride (1:1),31130,DTXSID6045325,CCCOc1cc(N)ccc1C(=O)OCCN(CC)CC,"InChI=1S/C16H26N2O3/c1-4-10-20-15-12-13(17)7-8-14(15)16(19)21-11-9-18(5-2)6-3/h7-8,12H,4-6,9-11,17H2,1-3H3",CAJIGINSTLKQMM-UHFFFAOYSA-N,Cl,18179.0,149.0,104062
104067,551-76-8,551-76-8,Cc1c(Cl)cc(Cl)c(O)c1Cl,"2,4,6-TRICHLORO-3-METHYLPHENOL","2,4,6-Trichloro-m-cresol","2,4,6-TRICHLORO-3-METHYLPHENOL",31134,DTXSID30203623,Cc1c(Cl)cc(Cl)c(O)c1Cl,"InChI=1S/C7H5Cl3O/c1-3-4(8)2-5(9)7(11)6(3)10/h2,11H,1H3",QTAATZDGGZYBDC-UHFFFAOYSA-N,?,,46.0,104067
104071,552-32-9,552-32-9,CC(=O)Nc1ccccc1[N+]([O-])=O,2-NITROACETANILIDE,"Acetamide, N-(2-nitrophenyl)-",N-(2-nitrophenyl)acetamide,31138,DTXSID4060282,CC(=O)Nc1ccccc1[N+]([O-])=O,"InChI=1S/C8H8N2O3/c1-6(11)9-7-4-2-3-5-8(7)10(12)13/h2-5H,1H3,(H,9,11)",BUNFNRVLMKHKIT-UHFFFAOYSA-N,?,,94.0,104071
104076,552-79-4,552-79-4,C[C@@H]([C@H](O)c1ccccc1)N(C)C,N-Methylephedrine,Methylephedrine,"(1R,2S)-2-(dimethylamino)-1-phenylpropan-1-ol",31143,DTXSID7045992,CC(C(O)c1ccccc1)N(C)C,"InChI=1S/C11H17NO/c1-9(12(2)3)11(13)10-7-5-4-6-8-10/h4-9,11,13H,1-3H3",FMCGSUUBYTWNDP-UHFFFAOYSA-N,?,,87.5,104076
104081,552-96-5,552-96-5,CC(C)=CCC1=CC=C(O)C(=O)C=C1C(C)=C,Procerin,Procerin,C15H18O2,31147,DTXSID30344126,CC(C)=CCC1=CC=C(O)C(=O)C=C1C(C)=C,"InChI=1S/C15H18O2/c1-10(2)5-6-12-7-8-14(16)15(17)9-13(12)11(3)4/h5,7-9H,3,6H2,1-2,4H3,(H,16,17)",JGONUWOERJCFMF-UHFFFAOYSA-N,?,,71.5,104081
104085,553-20-8,553-20-8,CC(=O)Nc1cc(ccc1OCCC)[N+]([O-])=O,"ACETAMIDE, N-(5-NITRO-2-PROPOXYPHENYL)-",5'-Nitro-2'-propoxyacetanilide,N-(5-nitro-2-propoxyphenyl)acetamide,31151,DTXSID20203819,CC(=O)Nc1cc(ccc1OCCC)[N+]([O-])=O,"InChI=1S/C11H14N2O4/c1-3-6-17-11-5-4-9(13(15)16)7-10(11)12-8(2)14/h4-5,7H,3,6H2,1-2H3,(H,12,14)",OPTZOXDYEFIPJZ-UHFFFAOYSA-N,?,,102.5,104085
104090,553-79-7,553-79-7,CCCOc1ccc(cc1N)[N+]([O-])=O,5-Nitro-2-propoxyaniline,5-Nitro-2-propoxyaniline,5-Nitro-2-propoxyaniline,31155,DTXSID50203827,CCCOc1ccc(cc1N)[N+]([O-])=O,"InChI=1S/C9H12N2O3/c1-2-5-14-9-4-3-7(11(12)13)6-8(9)10/h3-4,6H,2,5,10H2,1H3",RXQCEGOUSFBKPI-UHFFFAOYSA-N,?,,49.0,104090
104094,553-94-6,553-94-6,Cc1cc(Br)c(C)cc1,"Benzene, 2-bromo-1,4-dimethyl-","Benzene, 2-bromo-1,4-dimethyl-","2-Bromo-1,4-dimethylbenzene",31159,DTXSID9060289,Cc1cc(Br)c(C)cc1,"InChI=1S/C8H9Br/c1-6-3-4-7(2)8(9)5-6/h3-5H,1-2H3",QXISTPDUYKNPLU-UHFFFAOYSA-N,?,,9.0,104094
104098,554-12-1,554-12-1,CCC(=O)OC,METHYL PROPIONATE,Methyl propanoate,methyl propanoate,31163,DTXSID7027201,CCC(=O)OC,"InChI=1S/C4H8O2/c1-3-4(5)6-2/h3H2,1-2H3",RJUFJBKOKNCXHH-UHFFFAOYSA-N,?,,-87.5,104098
104103,554-57-4,554-57-4,CC(=O)N=C1SC(=NN1C)S(N)(=O)=O,METHAZOLAMIDE,Methazolamide,"N-(3-methyl-5-sulfamoyl-1,3,4-thiadiazol-2(3H)-ylidene)acetamide",31167,DTXSID1023281,CC(=O)N=C1SC(=NN1C)S(N)(=O)=O,"InChI=1S/C5H8N4O3S2/c1-3(10)7-4-9(2)8-5(13-4)14(6,11)12/h1-2H3,(H2,6,11,12)/b7-4-",FLOSMHQXBMRNHR-DAXSKMNVSA-N,?,,213.5,104103
104107,554-99-4,NOCAS_871762,CN(C)CC(O)c1cc(O)c(O)cc1,N-Methylepinephrine,,,31171,DTXSID50871762,CN(C)CC(O)c1cc(O)c(O)cc1,"InChI=1S/C10H15NO3/c1-11(2)6-10(14)7-3-4-8(12)9(13)5-7/h3-5,10,12-14H,6H2,1-2H3",RLATYNCITHOLTJ-UHFFFAOYSA-N,?,,149.0,104107
104112,555-37-3,555-37-3,CCCCN(C)C(=O)Nc1cc(Cl)c(Cl)cc1,NEBURON,Neburon,"1-butyl-3-(3,4-dichlorophenyl)-1-methylurea",31175,DTXSID4042200,CCCCN(C)C(=O)Nc1cc(Cl)c(Cl)cc1,"InChI=1S/C12H16Cl2N2O/c1-3-4-7-16(2)12(17)15-9-5-6-10(13)11(14)8-9/h5-6,8H,3-4,7H2,1-2H3,(H,15,17)",CCGPUGMWYLICGL-UHFFFAOYSA-N,?,,102.0,104112
104117,555-96-4,555-96-4,NNCc1ccccc1,Benzylhydrazine,Benzylhydrazine,benzylhydrazine,31179,DTXSID2043749,NNCc1ccccc1,"InChI=1S/C7H10N2/c8-9-6-7-4-2-1-3-5-7/h1-5,9H,6,8H2",NHOWLEZFTHYCTP-UHFFFAOYSA-N,?,,26.0,104117
104122,556-56-9,556-56-9,C=CCI,"1-Propene, 3-iodo-","1-Propene, 3-iodo-",3-iodoprop-1-ene,31183,DTXSID5060302,C=CCI,"InChI=1S/C3H5I/c1-2-3-4/h2H,1,3H2",HFEHLDPGIKPNKL-UHFFFAOYSA-N,?,,-99.3,104122
104126,556-68-3,556-68-3,C[Si]1(C)O[Si](C)(C)O[Si](C)(C)O[Si](C)(C)O[Si](C)(C)O[Si](C)(C)O[Si](C)(C)O[Si](C)(C)O1,HEXADECAMETHYLCYCLOOCTASILOXANE,"Cyclooctasiloxane, hexadecamethyl-","2,2,4,4,6,6,8,8,10,10,12,12,14,14,16,16-hexadecamethyl-1,3,5,7,9,11,13,15-octaoxa-2,4,6,8,10,12,14,16-octasilacyclohexadecane",31187,DTXSID0060305,C[Si]1(C)O[Si](C)(C)O[Si](C)(C)O[Si](C)(C)O[Si](C)(C)O[Si](C)(C)O[Si](C)(C)O[Si](C)(C)O1,"InChI=1S/C16H48O8Si8/c1-25(2)17-26(3,4)19-28(7,8)21-30(11,12)23-32(15,16)24-31(13,14)22-29(9,10)20-27(5,6)18-25/h1-16H3",XKJMJYZFAWYREL-UHFFFAOYSA-N,?,,31.5,104126
104134,557-59-5,557-59-5,CCCCCCCCCCCCCCCCCCCCCCCC(O)=O,Tetracosanoic acid,Tetracosanoic acid,tetracosanoic acid,31191,DTXSID6021664,CCCCCCCCCCCCCCCCCCCCCCCC(O)=O,"InChI=1S/C24H48O2/c1-2-3-4-5-6-7-8-9-10-11-12-13-14-15-16-17-18-19-20-21-22-23-24(25)26/h2-23H2,1H3,(H,25,26)",QZZGJDVWLFXDLK-UHFFFAOYSA-N,?,,84.2,104134
104138,557-93-7,557-93-7,CC(=C)Br,"1-Propene, 2-bromo-","1-Propene, 2-bromo-",2-bromoprop-1-ene,31195,DTXSID8060325,CC(=C)Br,"InChI=1S/C3H5Br/c1-3(2)4/h1H2,2H3",PHMRPWPDDRGGGF-UHFFFAOYSA-N,?,,-126.0,104138
104142,558-17-8,558-17-8,CC(C)(C)I,"Propane, 2-iodo-2-methyl-","Propane, 2-iodo-2-methyl-",2-Iodo-2-methylpropane,31199,DTXSID3060328,CC(C)(C)I,"InChI=1S/C4H9I/c1-4(2,3)5/h1-3H3",ANGGPYSFTXVERY-UHFFFAOYSA-N,?,,-38.2,104142
104147,,559-74-0,CC1(C)C[C@@H]2[C@@](C)(CC[C@]3(C)[C@H]4CC[C@@]5(C)[C@@H](CCC(=O)[C@@H]5C)[C@]4(C)CC[C@]32C)CC1,Friedelin,,,31203,,CC1(C)CC2C(C)(CCC3(C)C4CCC5(C)C(CCC(=O)C5C)C4(C)CCC32C)CC1,"InChI=1S/C30H50O/c1-20-21(31)9-10-22-27(20,5)12-11-23-28(22,6)16-18-30(8)24-19-25(2,3)13-14-26(24,4)15-17-29(23,30)7/h20,22-24H,9-19H2,1-8H3",OFMXGFHWLZPCFL-UHFFFAOYSA-N,?,,263.0,104147
104151,561-27-3,561-27-3,CN1CC[C@@]23[C@H]4Oc5c2c(C[C@@H]1[C@@H]3C=C[C@@H]4OC(C)=O)ccc5OC(C)=O,HEROIN,"3,6-Diacetylmorphine","(5alpha,6alpha)-17-methyl-7,8-didehydro-4,5-epoxymorphinan-3,6-diyl diacetate",31207,DTXSID6046761,CN1CCC23C4Oc5c2c(CC1C3C=CC4OC(C)=O)ccc5OC(C)=O,"InChI=1S/C21H23NO5/c1-11(23)25-16-6-4-13-10-15-14-5-7-17(26-12(2)24)20-21(14,8-9-22(15)3)18(13)19(16)27-20/h4-7,14-15,17,20H,8-10H2,1-3H3",GVGLGOZIDCSQPN-UHFFFAOYSA-N,?,,173.0,104151
104157,563-03-1,563-03-1,COc1ccccc1OP(=O)(Oc1ccccc1OC)Oc1ccccc1OC,Guaiacol Phosphate,Guaiacol phosphate,Tris(2-methoxyphenyl) phosphate,31211,DTXSID70204836,COc1ccccc1OP(=O)(Oc1ccccc1OC)Oc1ccccc1OC,"InChI=1S/C21H21O7P/c1-23-16-10-4-7-13-19(16)26-29(22,27-20-14-8-5-11-17(20)24-2)28-21-15-9-6-12-18(21)25-3/h4-15H,1-3H3",ADBFDJQRBQZXAB-UHFFFAOYSA-N,?,,91.0,104157
104162,563-45-1,563-45-1,CC(C)C=C,3-METHYL-1-BUTENE,3-Methyl-1-butene,3-Methylbut-1-ene,31215,DTXSID7060336,CC(C)C=C,"InChI=1S/C5H10/c1-4-5(2)3/h4-5H,1H2,2-3H3",YHQXBTXEYZIYOV-UHFFFAOYSA-N,?,,-168.5,104162
104166,563-80-4,563-80-4,CC(C)C(C)=O,3-METHYL-2-BUTANONE,3-Methyl-2-butanone,3-methylbutan-2-one,31219,DTXSID0022062,CC(C)C(C)=O,"InChI=1S/C5H10O/c1-4(2)5(3)6/h4H,1-3H3",SYBYTAAJFKOIEJ-UHFFFAOYSA-N,?,,-92.0,104166
104174,565-64-0,NOCAS_870615,OC(=O)C(Cl)CCl,"2,3-DICHLOROPROPIONIC ACID",,,31224,DTXSID10870615,OC(=O)C(Cl)CCl,"InChI=1S/C3H4Cl2O2/c4-1-2(5)3(6)7/h2H,1H2,(H,6,7)",GKFWNPPZHDYVLI-UHFFFAOYSA-N,?,,50.0,104174
104178,565-80-0,565-80-0,CC(C)C(=O)C(C)C,"2,4-DIMETHYL-3-PENTANONE","2,4-Dimethylpentan-3-one","2,4-dimethylpentan-3-one",31228,DTXSID3038771,CC(C)C(=O)C(C)C,"InChI=1S/C7H14O/c1-5(2)7(8)6(3)4/h5-6H,1-4H3",HXVNBWAKAOHACI-UHFFFAOYSA-N,?,,-69.0,104178
104185,569-34-6,569-34-6,COc1[n]c2c(C(=O)N(C)C(=O)N2C)[n]1C,"1H-Purine-2,6-dione, 3,7-dihydro-8-methoxy-1,3,7",8-Methoxycaffeine,"8-methoxy-1,3,7-trimethylpurine-2,6-dione",31232,DTXSID20205434,COc1[n]c2c(C(=O)N(C)C(=O)N2C)[n]1C,InChI=1S/C9H12N4O3/c1-11-5-6(10-8(11)16-4)12(2)9(15)13(3)7(5)14/h1-4H3,ATPSJRIIRXKPER-UHFFFAOYSA-N,?,,176.0,104185
104189,570-22-9,570-22-9,OC(=O)c1[nH]c[n]c1C(O)=O,"1H-IMIDAZOLE-4,5-DICARBOXYLIC ACID","1H-Imidazole-4,5-dicarboxylic acid","1H-Imidazole-4,5-dicarboxylic acid",31236,DTXSID6060349,OC(=O)c1[nH]c[n]c1C(O)=O,"InChI=1S/C5H4N2O4/c8-4(9)2-3(5(10)11)7-1-6-2/h1H,(H,6,7)(H,8,9)(H,10,11)",ZEVWQFWTGHFIDH-UHFFFAOYSA-N,?,,288.0,104189
104193,571-61-9,571-61-9,Cc1cccc2c1cccc2C,"1,5-DIMETHYLNAPHTHALENE","1,5-Dimethylnaphthalene","1,5-Dimethylnaphthalene",31240,DTXSID0060351,Cc1cccc2c1cccc2C,"InChI=1S/C12H12/c1-9-5-3-8-12-10(2)6-4-7-11(9)12/h3-8H,1-2H3",SDDBCEWUYXVGCQ-UHFFFAOYSA-N,?,,82.0,104193
104199,573-11-5,573-11-5,COc1c(OC)c(ccc1OC)C(O)=O,"2,3,4-TRIMETHOXYBENZOIC ACID","2,3,4-Trimethoxybenzoic acid","2,3,4-TRIMETHOXYBENZOIC ACID",31244,DTXSID00205912,COc1c(OC)c(ccc1OC)C(O)=O,"InChI=1S/C10H12O5/c1-13-7-5-4-6(10(11)12)8(14-2)9(7)15-3/h4-5H,1-3H3,(H,11,12)",HZNQSWJZTWOTKM-UHFFFAOYSA-N,?,,100.5,104199
104203,573-33-1,161970-92-9,c1ccccc1[C@H]1NC(=N[C@@H]1c1ccccc1)c1ccccc1,"2,4,5-Triphenyl-4,5-dihydro-1H-imidazole","1H-Imidazole, 4,5-dihydro-2,4,5-triphenyl-, (4R,5R)-",C21H18N2,31248,DTXSID30448193,c1ccccc1C1NC(=NC1c1ccccc1)c1ccccc1,"InChI=1S/C21H18N2/c1-4-10-16(11-5-1)19-20(17-12-6-2-7-13-17)23-21(22-19)18-14-8-3-9-15-18/h1-15,19-20H,(H,22,23)",UCCFUHZMGXEALP-UHFFFAOYSA-N,?,,134.5,104203
104207,573-98-8,573-98-8,Cc1ccc2ccccc2c1C,"1,2-DIMETHYLNAPHTHALENE","1,2-Dimethylnapthalene","1,2-dimethylnaphthalene",31252,DTXSID1058717,Cc1ccc2ccccc2c1C,"InChI=1S/C12H12/c1-9-7-8-11-5-3-4-6-12(11)10(9)2/h3-8H,1-2H3",QNLZIZAQLLYXTC-UHFFFAOYSA-N,?,,1.6,104207
104211,575-37-1,575-37-1,Cc1cc2c(cc1)cccc2C,"1,7-DIMETHYLNAPHTHALENE","1,7-Dimethylnaphthalene","1,7-Dimethylnaphthalene",31256,DTXSID7073197,Cc1cc2c(cc1)cccc2C,"InChI=1S/C12H12/c1-9-6-7-11-5-3-4-10(2)12(11)8-9/h3-8H,1-2H3",SPUWFVKLHHEKGV-UHFFFAOYSA-N,?,,-13.9,104211
104215,575-44-0,575-44-0,Oc1cc2cccc(O)c2cc1,"1,6-Naphthalenediol","Naphthalene-1,6-diol","naphthalene-1,6-diol",31260,DTXSID7052238,Oc1cc2cccc(O)c2cc1,"InChI=1S/C10H8O2/c11-8-4-5-9-7(6-8)2-1-3-10(9)12/h1-6,11-12H",FZZQNEVOYIYFPF-UHFFFAOYSA-N,?,,138.0,104215
104219,576-26-1,576-26-1,Cc1cccc(C)c1O,"2,6-DIMETHYLPHENOL","2,6-Dimethylphenol","2,6-dimethylphenol",31264,DTXSID9024063,Cc1cccc(C)c1O,"InChI=1S/C8H10O/c1-6-4-3-5-7(2)8(6)9/h3-5,9H,1-2H3",NXXYKOUNUYWIHA-UHFFFAOYSA-N,?,,45.7,104219
104223,577-19-5,577-19-5,[O-][N+](=O)c1ccccc1Br,O-BROMONITROBENZENE,o-Bromonitrobenzene,1-Bromo-2-nitrobenzene,31268,DTXSID9060364,[O-][N+](=O)c1ccccc1Br,InChI=1S/C6H4BrNO2/c7-5-3-1-2-4-6(5)8(9)10/h1-4H,ORPVVAKYSXQCJI-UHFFFAOYSA-N,?,,43.0,104223
104227,577-56-0,577-56-0,CC(=O)c1ccccc1C(O)=O,O-ACETYLBENZOIC ACID,2-Acetylbenzoic acid,2-Acetylbenzoic acid,31272,DTXSID00206404,CC(=O)c1ccccc1C(O)=O,"InChI=1S/C9H8O3/c1-6(10)7-4-2-3-5-8(7)9(11)12/h2-5H,1H3,(H,11,12)",QDAWXRKTSATEOP-UHFFFAOYSA-N,?,,114.5,104227
104231,577-91-3,577-91-3,Oc1c(I)cc(CC(c2ccccc2)C(O)=O)cc1I,Iodoalphionic acid,Iodoalphionic acid,"3-(4-hydroxy-3,5-diiodophenyl)-2-phenylpropanoic acid",31276,DTXSID6046131,Oc1c(I)cc(CC(c2ccccc2)C(O)=O)cc1I,"InChI=1S/C15H12I2O3/c16-12-7-9(8-13(17)14(12)18)6-11(15(19)20)10-4-2-1-3-5-10/h1-5,7-8,11,18H,6H2,(H,19,20)",IKYIXZSIKOYSLD-UHFFFAOYSA-N,?,,164.0,104231
104235,578-57-4,578-57-4,COc1ccccc1Br,1-BROMO-2-METHOXYBENZENE,"Benzene, 1-bromo-2-methoxy-",1-Bromo-2-methoxybenzene,31280,DTXSID4060367,COc1ccccc1Br,"InChI=1S/C7H7BrO/c1-9-7-5-3-2-4-6(7)8/h2-5H,1H3",HTDQSWDEWGSAMN-UHFFFAOYSA-N,?,,2.5,104235
104239,578-76-7,578-76-7,C[n]1c[n]c2N=C(N)NC(=O)c12,"6H-Purin-6-one, 2-amino-1,7-dihydro-7-methyl-",7-Methylguanine,"2-amino-7-methyl-1,7-dihydro-6H-purin-6-one",31284,DTXSID9020873,C[n]1c[n]c2N=C(N)NC(=O)c12,"InChI=1S/C6H7N5O/c1-11-2-8-4-3(11)5(12)10-6(7)9-4/h2H,1H3,(H3,7,9,10,12)",FZWGECJQACGGTI-UHFFFAOYSA-N,?,,370.0,104239
104244,579-38-4,579-38-4,CN(C(=O)C(Cl)Cl)c1ccc(O)cc1,DILOXANIDE,Diloxanide,"2,2-dichloro-N-(4-hydroxyphenyl)-N-methylacetamide",31288,DTXSID0022939,CN(C(=O)C(Cl)Cl)c1ccc(O)cc1,"InChI=1S/C9H9Cl2NO2/c1-12(9(14)8(10)11)6-2-4-7(13)5-3-6/h2-5,8,13H,1H3",GZZZSOOGQLOEOB-UHFFFAOYSA-N,?,,175.0,104244
104250,580-13-2,580-13-2,Brc1cc2ccccc2cc1,2-BROMONAPHTHALENE,"Naphthalene, 2-bromo-",2-Bromonaphthalene,31294,DTXSID3060378,Brc1cc2ccccc2cc1,InChI=1S/C10H7Br/c11-10-6-5-8-3-1-2-4-9(8)7-10/h1-7H,APSMUYYLXZULMS-UHFFFAOYSA-N,?,,59.0,104250
104254,580-20-1,580-20-1,Oc1cc2[n]cccc2cc1,7-QUINOLINOL,7-Quinolinol,,31298,DTXSID7060380,Oc1cc2[n]cccc2cc1,"InChI=1S/C9H7NO/c11-8-4-3-7-2-1-5-10-9(7)6-8/h1-6,11H",XCRPPAPDRUBKRJ-UHFFFAOYSA-N,?,,239.0,104254
104258,581-08-8,581-08-8,CC(=O)Nc1ccccc1OCC,"ACETAMIDE, N-(2-ETHOXYPHENYL)-","Acetamide, N-(2-ethoxyphenyl)-",N-(2-Ethoxyphenyl)acetamide,31302,DTXSID7060382,CC(=O)Nc1ccccc1OCC,"InChI=1S/C10H13NO2/c1-3-13-10-7-5-4-6-9(10)11-8(2)12/h4-7H,3H2,1-2H3,(H,11,12)",SQRTWLGWCOJOTO-UHFFFAOYSA-N,?,,79.0,104258
104262,581-46-4,581-46-4,c1[n]cccc1-c1c[n]ccc1,"3,3'-BIPYRIDINE","3,3'-Bipyridine",3-pyridin-3-ylpyridine,31306,DTXSID80206821,c1[n]cccc1-c1c[n]ccc1,InChI=1S/C10H8N2/c1-3-9(7-11-5-1)10-4-2-6-12-8-10/h1-8H,OFDVABAUFQJWEZ-UHFFFAOYSA-N,?,,68.0,104262
104266,581-96-4,581-96-4,OC(=O)Cc1cc2ccccc2cc1,2-NAPHTHALENEACETIC ACID,2-Naphthylacetic acid,2-naphthalen-2-ylacetic acid,31310,DTXSID20206825,OC(=O)Cc1cc2ccccc2cc1,"InChI=1S/C12H10O2/c13-12(14)8-9-5-6-10-3-1-2-4-11(10)7-9/h1-7H,8H2,(H,13,14)",VIBOGIYPPWLDTI-UHFFFAOYSA-N,?,,142.0,104266
104271,582-60-5,NOCAS_870631,Cc1cc2[n]c[nH]c2cc1C,"5,6-DIMETHYLBENZIMIDAZOLE",,,31314,DTXSID70870631,Cc1cc2[n]c[nH]c2cc1C,"InChI=1S/C9H10N2/c1-6-3-8-9(4-7(6)2)11-5-10-8/h3-5H,1-2H3,(H,10,11)",LJUQGASMPRMWIW-UHFFFAOYSA-N,?,,205.5,104271
104275,583-39-1,583-39-1,S=C1Nc2ccccc2N1,O-PHENYLENETHIOUREA,2-Mercaptobenzimidazole,"1,3-dihydro-2H-benzimidazole-2-thione",31318,DTXSID9025536,S=C1Nc2ccccc2N1,"InChI=1S/C7H6N2S/c10-7-8-5-3-1-2-4-6(5)9-7/h1-4H,(H2,8,9,10)",YHMYGUUIMTVXNW-UHFFFAOYSA-N,?,,298.0,104275
104279,583-68-6,583-68-6,Cc1cc(Br)c(N)cc1,"Benzenamine, 2-bromo-4-methyl-","Benzenamine, 2-bromo-4-methyl-",2-Bromo-4-methylaniline,31322,DTXSID1060396,Cc1cc(Br)c(N)cc1,"InChI=1S/C7H8BrN/c1-5-2-3-7(9)6(8)4-5/h2-4H,9H2,1H3",UVRRJILIXQAAFK-UHFFFAOYSA-N,?,,26.0,104279