ChemID,source_casrn,CAS,SMILES,NAME,preferred_name,iupac,MPID,dsstox_substance_id,Canonical_QSARr,InChI_Code_QSARr,InChI Key_QSARr,Salt_Solvent,BP,ID
103276,753-89-9,753-89-9,CC(C)(C)CCl,"Propane, 1-chloro-2,2-dimethyl-","1-Chloro-2,2-dimethylpropane","1-Chloro-2,2-dimethylpropane",22247,DTXSID7061069,CC(C)(C)CCl,"InChI=1S/C5H11Cl/c1-5(2,3)4-6/h4H2,1-3H3",JEKYMVBQWWZVHO-UHFFFAOYSA-N,?,84.3,103276
103277,753-90-2,753-90-2,NCC(F)(F)F,"2,2,2-TRIFLUOROETHYLAMINE","Ethanamine, 2,2,2-trifluoro-","2,2,2-trifluoroacetonitrile",22248,DTXSID6061070,NCC(F)(F)F,"InChI=1S/C2H4F3N/c3-2(4,5)1-6/h1,6H2",KIPSRYDSZQRPEA-UHFFFAOYSA-N,?,37.5,103277
103279,754-34-7,754-34-7,FC(F)(F)C(F)(F)C(F)(F)I,"Propane, 1,1,1,2,2,3,3-heptafluoro-3-iodo-","Propane, 1,1,1,2,2,3,3-heptafluoro-3-iodo-","1,1,1,2,2,3,3-Heptafluoro-3-iodopropane",22250,DTXSID1061073,FC(F)(F)C(F)(F)C(F)(F)I,"InChI=1S/C3F7I/c4-1(5,2(6,7)8)3(9,10)11",XTGYEAXBNRVNQU-UHFFFAOYSA-N,?,41.2,103279
103280,755-25-9,755-25-9,FC(F)(F)C(F)(F)C(F)(F)C(F)(F)C(F)=C(F)F,Dodecafluoro-hex-1-ene,Perfluorohex-1-ene,"1,1,2,3,3,4,4,5,5,6,6,6-dodecafluorohex-1-ene",22251,DTXSID00226440,FC(F)(F)C(F)(F)C(F)(F)C(F)(F)C(F)=C(F)F,"InChI=1S/C6F12/c7-1(2(8)9)3(10,11)4(12,13)5(14,15)6(16,17)18",RMHCWMIZBMGHKV-UHFFFAOYSA-N,?,57.0,103280
103281,756-09-2,756-09-2,OC(=O)C(F)(F)C(F)F,"2,2,3,3-Tetrafluropropionic acid",Flupropanate,"2,2,3,3-tetrafluoropropanoic acid",22252,DTXSID7058177,OC(=O)C(F)(F)C(F)F,"InChI=1S/C3H2F4O2/c4-1(5)3(6,7)2(8)9/h1H,(H,8,9)",PXRROZVNOOEPPZ-UHFFFAOYSA-N,?,134.0,103281
103283,758-96-3,758-96-3,CCC(=O)N(C)C,"PROPANAMIDE, N,N-DIMETHYL-","Propanamide, N,N-dimethyl-","N,N-dimethylpropanamide",22254,DTXSID1061077,CCC(=O)N(C)C,"InChI=1S/C5H11NO/c1-4-5(7)6(2)3/h4H2,1-3H3",MBHINSULENHCMF-UHFFFAOYSA-N,?,174.5,103283
103284,759-05-7,759-05-7,CC(C)C(=O)C(O)=O,"Butanoic acid, 3-methyl-2-oxo-",2-Ketoisovaleric acid,3-Methyl-2-oxobutanoic acid,22255,DTXSID6061078,CC(C)C(=O)C(O)=O,"InChI=1S/C5H8O3/c1-3(2)4(6)5(7)8/h3H,1-2H3,(H,7,8)",QHKABHOOEWYVLI-UHFFFAOYSA-N,?,170.5,103284
103285,759-36-4,759-36-4,CC(C)C(C(=O)OCC)C(=O)OCC,"PROPANEDIOIC ACID, (1-METHYLETHYL)-, DIETHYL EST",Diethyl isopropylmalonate,diethyl 2-propan-2-ylpropanedioate,22256,DTXSID60226820,CC(C)C(C(=O)OCC)C(=O)OCC,"InChI=1S/C10H18O4/c1-5-13-9(11)8(7(3)4)10(12)14-6-2/h7-8H,5-6H2,1-4H3",BYQFBFWERHXONI-UHFFFAOYSA-N,?,215.0,103285
103287,760-21-4,760-21-4,CCC(=C)CC,2-ETHYL-1-BUTENE,3-Methylenepentane,3-methylidenepentane,22258,DTXSID0061080,CCC(=C)CC,"InChI=1S/C6H12/c1-4-6(3)5-2/h3-5H2,1-2H3",RYKZRKKEYSRDNF-UHFFFAOYSA-N,?,64.7,103287
103288,760-23-6,760-23-6,C=CC(Cl)CCl,"3,4-DICHLORO-1-BUTENE","3,4-Dichloro-1-butene","3,4-dichlorobut-1-ene",22259,DTXSID8022113,C=CC(Cl)CCl,"InChI=1S/C4H6Cl2/c1-2-4(6)3-5/h2,4H,1,3H2",XVEASTGLHPVZNA-UHFFFAOYSA-N,?,116.0,103288
103289,760-79-2,760-79-2,CCCC(=O)N(C)C,"Butanamide, N,N-dimethyl-","Butanamide, N,N-dimethyl-","N,N-Dimethylbutanamide",22260,DTXSID5061081,CCCC(=O)N(C)C,"InChI=1S/C6H13NO/c1-4-5-6(8)7(2)3/h4-5H2,1-3H3",VIJUZNJJLALGNJ-UHFFFAOYSA-N,?,186.0,103289
103291,762-49-2,762-49-2,FCCBr,"ETHANE, 1-BROMO-2-FLUORO-","Ethane, 1-bromo-2-fluoro-",1-bromo-2-fluoroethyne,22262,DTXSID6073233,FCCBr,InChI=1S/C2H4BrF/c3-1-2-4/h1-2H2,JTLAIKFGRHDNQM-UHFFFAOYSA-N,?,71.5,103291
103292,762-50-5,762-50-5,FCCCl,1-Chloro-2-fluoroethane,HCFC-151,1-chloro-2-fluoroethyne,22263,DTXSID1073234,FCCCl,InChI=1S/C2H4ClF/c3-1-2-4/h1-2H2,VEZJSKSPVQQGIS-UHFFFAOYSA-N,?,53.1,103292
103293,762-62-9,762-62-9,CC(C)(C)CC=C,"1-PENTENE, 4,4-DIMETHYL-","1-Pentene, 4,4-dimethyl-","4,4-Dimethylpent-1-ene",22264,DTXSID6073235,CC(C)(C)CC=C,"InChI=1S/C7H14/c1-5-6-7(2,3)4/h5H,1,6H2,2-4H3",KLCNJIQZXOQYTE-UHFFFAOYSA-N,?,72.5,103293
103295,762-72-1,762-72-1,C[Si](C)(C)CC=C,"SILANE, TRIMETHYL-2-PROPENYL-","Silane, trimethyl-2-propenyl-",trimethyl-prop-2-enylsilane,22266,DTXSID5061089,C[Si](C)(C)CC=C,"InChI=1S/C6H14Si/c1-5-6-7(2,3)4/h5H,1,6H2,2-4H3",HYWCXWRMUZYRPH-UHFFFAOYSA-N,?,86.0,103295
103296,762-75-4,762-75-4,CC(C)(C)OC=O,tert-Butyl formate,tert-Butyl formate,tert-butyl formate,22267,DTXSID4024690,CC(C)(C)OC=O,"InChI=1S/C5H10O2/c1-5(2,3)7-4-6/h4H,1-3H3",RUPAXCPQAAOIPB-UHFFFAOYSA-N,?,82.5,103296
103297,763-29-1,763-29-1,CCCC(C)=C,2-METHYL-1-PENTENE,2-Methylbut-1-ene,2-methylpent-1-ene,22268,DTXSID9052505,CCCC(C)=C,"InChI=1S/C6H12/c1-4-5-6(2)3/h2,4-5H2,1,3H3",WWUVJRULCWHUSA-UHFFFAOYSA-N,?,62.1,103297
103299,763-32-6,763-32-6,CC(=C)CCO,3-METHYL-3-BUTEN-1-OL,3-Methylbut-3-en-1-ol,3-methylbut-3-en-1-ol,22270,DTXSID4052506,CC(=C)CCO,"InChI=1S/C5H10O/c1-5(2)3-4-6/h6H,1,3-4H2,2H3",CPJRRXSHAYUTGL-UHFFFAOYSA-N,?,132.0,103299
103300,763-93-9,NOCAS_870764,CCC=CC(C)=O,3-HEXEN-2-ONE,,,22271,DTXSID40870764,CCC=CC(C)=O,"InChI=1S/C6H10O/c1-3-4-5-6(2)7/h4-5H,3H2,1-2H3/b5-4+",LPCWMYHBLXLJJQ-SNAWJCMRSA-N,?,140.0,103300
103301,764-01-2,764-01-2,CC#CCO,2-Butyn-1-ol,2-Butyn-1-ol,but-2-yn-1-ol,22272,DTXSID8022115,CC#CCO,"InChI=1S/C4H6O/c1-2-3-4-5/h5H,4H2,1H3",NEEDEQSZOUAJMU-UHFFFAOYSA-N,?,148.0,103301
103303,764-35-2,764-35-2,CC#CCCC,2-HEXYNE,2-Hexyne,Hex-2-yne,22274,DTXSID9074725,CC#CCCC,"InChI=1S/C6H10/c1-3-5-6-4-2/h3,5H2,1-2H3",MELUCTCJOARQQG-UHFFFAOYSA-N,?,84.5,103303
103305,764-42-1,764-42-1,N#C/C=C/C#N,"2-BUTENEDINITRILE, (E)-",Fumaronitrile,(2E)-but-2-enedinitrile,22276,DTXSID7025342,N#CC=CC#N,InChI=1S/C4H2N2/c5-3-1-2-4-6/h1-2H/b2-1+,KYPOHTVBFVELTG-OWOJBTEDSA-N,?,186.0,103305
103306,764-47-6,764-47-6,CCCOC=C,"Propane, 1-(ethenyloxy)-","Propane, 1-(ethenyloxy)-",1-ethenoxypropane,22277,DTXSID9061093,CCCOC=C,"InChI=1S/C5H10O/c1-3-5-6-4-2/h4H,2-3,5H2,1H3",OVGRCEFMXPHEBL-UHFFFAOYSA-N,?,65.0,103306
103308,764-49-8,NOCAS_870765,C=CCSC#N,3-Thiocyanato-propene,,,22279,DTXSID00870765,C=CCSC#N,"InChI=1S/C4H5NS/c1-2-3-6-4-5/h2H,1,3H2",IFVYHJRLWCUVBB-UHFFFAOYSA-N,?,161.0,103308
103309,764-85-2,764-85-2,CCCCCCCCC(=O)Cl,Nonanoyl chloride,Nonanoyl chloride,nonanoyl chloride,22280,DTXSID3042215,CCCCCCCCC(=O)Cl,"InChI=1S/C9H17ClO/c1-2-3-4-5-6-7-8-9(10)11/h2-8H2,1H3",NTQYXUJLILNTFH-UHFFFAOYSA-N,?,215.3,103309
103310,764-93-2,NOCAS_870766,CCCCCCCCC#C,1-Decyne,,,22281,DTXSID60870766,CCCCCCCCC#C,"InChI=1S/C10H18/c1-3-5-7-9-10-8-6-4-2/h1H,4-10H2,2H3",ILLHQJIJCRNRCJ-UHFFFAOYSA-N,?,174.0,103310
103313,764-99-8,764-99-8,C=COCCOCCOC=C,"Ethene, 1,1'-(oxybis(2,1-ethanediyloxy))bis-",{2-[2-(Ethenyloxy)ethoxy]ethoxy}ethene,{2-[2-(ethenyloxy)ethoxy]ethoxy}ethene,22284,DTXSID6044985,C=COCCOCCOC=C,"InChI=1S/C8H14O3/c1-3-9-5-7-11-8-6-10-4-2/h3-4H,1-2,5-8H2",SAMJGBVVQUEMGC-UHFFFAOYSA-N,?,198.5,103313
103314,765-03-7,765-03-7,CCCCCCCCCCC#C,1-Dodecyne,1-Dodecyne,dodec-1-yne,22285,DTXSID4061094,CCCCCCCCCCC#C,"InChI=1S/C12H22/c1-3-5-7-9-11-12-10-8-6-4-2/h1H,4-12H2,2H3",ZVDBUOGYYYNMQI-UHFFFAOYSA-N,?,215.0,103314
103315,765-09-3,765-09-3,CCCCCCCCCCCCCBr,1-BROMO-N-TRIDECANE,"Tridecane,1-bromo-",1-bromotridecane,22286,DTXSID6049355,CCCCCCCCCCCCCBr,"InChI=1S/C13H27Br/c1-2-3-4-5-6-7-8-9-10-11-12-13-14/h2-13H2,1H3",BFDNZQUBFCYTIC-UHFFFAOYSA-N,?,296.0,103315
103317,765-27-5,765-27-5,CCCCCCCCCCCCCCCCCCC#C,1-EICOSYNE,1-Eicosyne,icos-1-yne,22288,DTXSID70227303,CCCCCCCCCCCCCCCCCCC#C,"InChI=1S/C20H38/c1-3-5-7-9-11-13-15-17-19-20-18-16-14-12-10-8-6-4-2/h1H,4-20H2,2H3",BUSHLWVWPAEVMX-UHFFFAOYSA-N,?,340.0,103317
103318,765-30-0,765-30-0,NC1CC1,CYCLOPROPANAMINE,Cyclopropanamine,Cyclopropanamine,22289,DTXSID9061099,NC1CC1,"InChI=1S/C3H7N/c4-3-1-2-3/h3H,1-2,4H2",HTJDQJBWANPRPF-UHFFFAOYSA-N,?,50.5,103318
103320,765-42-4,6516-09-2,C[C@@H](O)C1CC1,"Cyclopropanemethanol, .alpha.-methyl-",(1R)-1-cyclopropylethanol,C5H10O,22290,DTXSID90426452,CC(O)C1CC1,"InChI=1S/C5H10O/c1-4(6)5-2-3-5/h4-6H,2-3H2,1H3",DKKVKJZXOBFLRY-UHFFFAOYSA-N,?,123.5,103320
103322,765-47-9,765-47-9,CC1CCCC=1C,"1,2-Dimethyl-cyclopentene","1,2-Dimethylcyclopentene","1,2-Dimethylcyclopentene",22292,DTXSID50227306,CC1CCCC=1C,"InChI=1S/C7H12/c1-6-4-3-5-7(6)2/h3-5H2,1-2H3",SZZWLAZADBEDQP-UHFFFAOYSA-N,?,105.8,103322
103323,765-58-2,765-58-2,Cc1ccc(Br)[s]1,2-Methyl-5-bromothiophene,2-Bromo-5-methylthiophene,2-Bromo-5-methylthiophene,22293,DTXSID70227308,Cc1ccc(Br)[s]1,"InChI=1S/C5H5BrS/c1-4-2-3-5(6)7-4/h2-3H,1H3",ACDLOOGOFKSUPO-UHFFFAOYSA-N,?,178.0,103323
103324,765-87-7,765-87-7,O=C1CCCCC1=O,"1,2-Cyclohexanedione","1,2-Cyclohexanedione","cyclohexane-1,2-dione",22294,DTXSID6061101,O=C1CCCCC1=O,InChI=1S/C6H8O2/c7-5-3-1-2-4-6(5)8/h1-4H2,OILAIQUEIWYQPH-UHFFFAOYSA-N,?,194.0,103324
103327,766-09-6,766-09-6,CCN1CCCCC1,"PIPERIDINE, 1-ETHYL-","Piperidine, 1-ethyl-",1-Ethylpiperidine,22296,DTXSID1061102,CCN1CCCCC1,"InChI=1S/C7H15N/c1-2-8-6-4-3-5-7-8/h2-7H2,1H3",HTLZVHNRZJPSMI-UHFFFAOYSA-N,?,130.8,103327
103329,766-20-1,NOCAS_870769,CC1CCOC(C)O1,"1,3-DIOXANE, 2,4-DIMETHYL-",,,22297,DTXSID40870769,CC1CCOC(C)O1,"InChI=1S/C6H12O2/c1-5-3-4-7-6(2)8-5/h5-6H,3-4H2,1-2H3",VREPYGYMOSZTKJ-UHFFFAOYSA-N,?,116.5,103329
103330,766-39-2,766-39-2,CC1C(=O)OC(=O)C=1C,"2,5-Furandione, 3,4-dimethyl-","2,5-Furandione, 3,4-dimethyl-","3,4-dimethylfuran-2,5-dione",22298,DTXSID6061103,CC1C(=O)OC(=O)C=1C,InChI=1S/C6H6O3/c1-3-4(2)6(8)9-5(3)7/h1-2H3,MFGALGYVFGDXIX-UHFFFAOYSA-N,?,223.0,103330
103333,766-92-7,766-92-7,CSCc1ccccc1,"Benzene,  (methylthio)methyl -",Benzyl methyl sulfide,methylsulfanylmethylbenzene,22300,DTXSID1061106,CSCc1ccccc1,"InChI=1S/C8H10S/c1-9-7-8-5-3-2-4-6-8/h2-6H,7H2,1H3",OFQPKKGMNWASPN-UHFFFAOYSA-N,?,210.0,103333
103334,766-93-8,766-93-8,O=CNC1CCCCC1,"FORMAMIDE, N-CYCLOHEXYL-",N-Cyclohexylformamide,N-Cyclohexylformamide,22301,DTXSID40227416,O=CNC1CCCCC1,"InChI=1S/C7H13NO/c9-6-8-7-4-2-1-3-5-7/h6-7H,1-5H2,(H,8,9)",SWGXDLRCJNEEGZ-UHFFFAOYSA-N,?,260.0,103334
103335,766-94-9,766-94-9,C=COc1ccccc1,"BENZENE, (ETHENYLOXY)-",Phenyl vinyl ether,ethenoxybenzene,22302,DTXSID00227417,C=COc1ccccc1,"InChI=1S/C8H8O/c1-2-9-8-6-4-3-5-7-8/h2-7H,1H2",NHOGGUYTANYCGQ-UHFFFAOYSA-N,?,155.5,103335
103337,767-10-2,767-10-2,CCCCN1CCCC1,N-Butylpyrrolidine,"Pyrrolidine, 1-butyl-",1-Butylpyrrolidine,22304,DTXSID20227494,CCCCN1CCCC1,"InChI=1S/C8H17N/c1-2-3-6-9-7-4-5-8-9/h2-8H2,1H3",JSHASCFKOSDFHY-UHFFFAOYSA-N,?,154.5,103337
103338,767-12-4,NOCAS_870770,CC1(C)CC(O)CCC1,"Cyclohexanol, 3,3-dimethyl-",,,22305,DTXSID50870770,CC1(C)CC(O)CCC1,"InChI=1S/C8H16O/c1-8(2)5-3-4-7(9)6-8/h7,9H,3-6H2,1-2H3",DQBDGNSFXSCBJX-UHFFFAOYSA-N,?,185.0,103338
103339,767-54-4|933-48-2,116-02-9|933-48-2,CC1CC(O)CC(C)(C)C1,"Cyclohexanol, 3,3,5-trimethyl-, trans-, Cyclohexanol, 3,3,5-trimethyl-, cis-","3,3,5-Trimethylcyclohexanol","3,3,5-trimethylcyclohexanol",22306|22511,DTXSID9041815|DTXSID1047570,CC1CC(O)CC(C)(C)C1,"InChI=1S/C9H18O/c1-7-4-8(10)6-9(2,3)5-7/h7-8,10H,4-6H2,1-3H3",BRRVXFOKWJKTGG-UHFFFAOYSA-N,?,195.6,103339
103341,767-59-9,53649-45-9,C[C@@H]1C=Cc2ccccc21,1-Methylindene,"1-Methylindene, (R)-",?,22308,DTXSID90201887,CC1C=Cc2ccccc21,"InChI=1S/C10H10/c1-8-6-7-9-4-2-3-5-10(8)9/h2-8H,1H3",LRTOHSLOFCWHRF-UHFFFAOYSA-N,?,199.0,103341
103342,767-60-2,767-60-2,CC1=CCc2ccccc21,"1H-INDENE, 3-METHYL-",3-Methylindene,3-METHYL-1H-INDENE,22309,DTXSID40227496,CC1=CCc2ccccc21,"InChI=1S/C10H10/c1-8-6-7-9-4-2-3-5-10(8)9/h2-6H,7H2,1H3",COOKKJGOGWACMY-UHFFFAOYSA-N,?,198.0,103342
103343,767-99-7|768-00-3,767-99-7|768-00-3,C/C(=C/C)/c1ccccc1,"BENZENE, (1-METHYL-1-PROPENYL)-, (Z)-, BENZENE, (1-METHYL-1-PROPENYL)-, (E)-",,,22310|22311,DTXSID40875936|DTXSID00875937,CC(=CC)c1ccccc1,"InChI=1S/C10H12/c1-3-9(2)10-7-5-4-6-8-10/h3-8H,1-2H3/b9-3+",UGUYQBMBIJFNRM-YCRREMRBSA-N,?,194.7,103343
103347,768-52-5,768-52-5,CC(C)Nc1ccccc1,"Benzenamine, N-(1-methylethyl)-",N-Isopropylaniline,N-(propan-2-yl)aniline,22313,DTXSID7025479,CC(C)Nc1ccccc1,"InChI=1S/C9H13N/c1-8(2)10-9-6-4-3-5-7-9/h3-8,10H,1-2H3",FRCFWPVMFJMNDP-UHFFFAOYSA-N,?,203.0,103347
103348,768-56-9,768-56-9,C=CCCc1ccccc1,"BENZENE, 3-BUTENYL-",3-Butenylbenzene,but-3-enylbenzene,22314,DTXSID80227612,C=CCCc1ccccc1,"InChI=1S/C10H12/c1-2-3-7-10-8-5-4-6-9-10/h2,4-6,8-9H,1,3,7H2",PBGVMIDTGGTBFS-UHFFFAOYSA-N,?,177.0,103348
103349,768-66-1,768-66-1,CC1(C)CCCC(C)(C)N1,"PIPERIDINE, 2,2,6,6-TETRAMETHYL-","Piperidine, 2,2,6,6-tetramethyl-","2,2,6,6-Tetramethylpiperidine",22315,DTXSID0061113,CC1(C)CCCC(C)(C)N1,"InChI=1S/C9H19N/c1-8(2)6-5-7-9(3,4)10-8/h10H,5-7H2,1-4H3",RKMGAJGJIURJSJ-UHFFFAOYSA-N,?,156.0,103349
103351,769-25-5,769-25-5,Cc1cc(C)c(C=C)c(C)c1,"BENZENE, 2-ETHENYL-1,3,5-TRIMETHYL-","2,4,6-Trimethylstyrene","2-ethenyl-1,3,5-trimethylbenzene",22317,DTXSID20227691,Cc1cc(C)c(C=C)c(C)c1,"InChI=1S/C11H14/c1-5-11-9(3)6-8(2)7-10(11)4/h5-7H,1H2,2-4H3",PDELBHCVXBSVPJ-UHFFFAOYSA-N,?,209.0,103351
103352,769-39-1,769-39-1,Oc1c(F)c(F)cc(F)c1F,"2,3,5,6-TETRAFLUOR-PHENOL","2,3,5,6-Tetrafluorophenol","2,3,5,6-Tetrafluorophenol",22318,DTXSID60227695,Oc1c(F)c(F)cc(F)c1F,"InChI=1S/C6H2F4O/c7-2-1-3(8)5(10)6(11)4(2)9/h1,11H",PBYIIRLNRCVTMQ-UHFFFAOYSA-N,?,140.0,103352
103353,769-68-6,NOCAS_862408,CCC(C#N)c1ccccc1,"Benzeneacetonitrile, .alpha.-ethyl-",,,22319,DTXSID00862408,CCC(C#N)c1ccccc1,"InChI=1S/C10H11N/c1-2-9(8-11)10-6-4-3-5-7-10/h3-7,9H,2H2,1H3",IZPUPXNVRNBDSW-UHFFFAOYSA-N,?,241.0,103353
103355,770-09-2,770-09-2,C[Si](C)(C)Cc1ccccc1,BENZYLTRIMETHYLSILANE,Trimethylbenzylsilane,trimethyl-(phenylmethyl)silane,22321,DTXSID5061116,C[Si](C)(C)Cc1ccccc1,"InChI=1S/C10H16Si/c1-11(2,3)9-10-7-5-4-6-8-10/h4-8H,9H2,1-3H3",MRIWRLGWLMRJIW-UHFFFAOYSA-N,?,190.5,103355
103356,770-12-7,770-12-7,O=P(Cl)(Cl)Oc1ccccc1,PHENYL DICHLOROPHOSPHATE,Phenyl phosphorodichloridate,phenyl phosphorodichloridate,22322,DTXSID6044987,O=P(Cl)(Cl)Oc1ccccc1,"InChI=1S/C6H5Cl2O2P/c7-11(8,9)10-6-4-2-1-3-5-6/h1-5H",TXFOLHZMICYNRM-UHFFFAOYSA-N,?,242.0,103356
103357,770-35-4,770-35-4,CC(O)COc1ccccc1,1-PHENOXY-2-PROPANOL,1-Phenoxy-2-propanol,1-phenoxypropan-2-ol,22323,DTXSID9027312,CC(O)COc1ccccc1,"InChI=1S/C9H12O2/c1-8(10)7-11-9-5-3-2-4-6-9/h2-6,8,10H,7H2,1H3",IBLKWZIFZMJLFL-UHFFFAOYSA-N,?,242.7,103357
103359,771-60-8,771-60-8,Nc1c(F)c(F)c(F)c(F)c1F,"2,3,4,5,6-PENTAFLUOROANILINE","2,3,4,5,6-Pentafluoroaniline",pentafluoroaniline,22325,DTXSID8022119,Nc1c(F)c(F)c(F)c(F)c1F,InChI=1S/C6H2F5N/c7-1-2(8)4(10)6(12)5(11)3(1)9/h12H2,NOXLGCOSAFGMDV-UHFFFAOYSA-N,?,153.0,103359
103360,771-61-9,771-61-9,Oc1c(F)c(F)c(F)c(F)c1F,PENTAFLUOROPHENOL,Pentafluorophenol,"2,3,4,5,6-Pentafluorophenol",22326,DTXSID9061120,Oc1c(F)c(F)c(F)c(F)c1F,InChI=1S/C6HF5O/c7-1-2(8)4(10)6(12)5(11)3(1)9/h12H,XBNGYFFABRKICK-UHFFFAOYSA-N,?,145.6,103360
103361,771-62-0,771-62-0,Fc1c(F)c(F)c(S)c(F)c1F,Pentafluorothiophenol,"Benzenethiol, pentafluoro-","2,3,4,5,6-Pentafluorobenzenethiol",22327,DTXSID10227887,Fc1c(F)c(F)c(S)c(F)c1F,InChI=1S/C6HF5S/c7-1-2(8)4(10)6(12)5(11)3(1)9/h12H,UVAMFBJPMUMURT-UHFFFAOYSA-N,?,143.0,103361
103363,771-99-3,771-99-3,C1CC(CCN1)c1ccccc1,"PIPERIDINE, 4-PHENYL-",4-Phenylpiperidine,4-Phenylpiperidine,22329,DTXSID40227890,C1CC(CCN1)c1ccccc1,"InChI=1S/C11H15N/c1-2-4-10(5-3-1)11-6-8-12-9-7-11/h1-5,11-12H,6-9H2",UTBULQCHEUWJNV-UHFFFAOYSA-N,?,257.0,103363
103364,772-00-9,NOCAS_870772,C1OC(CCO1)c1ccccc1,"1,3-Dioxane, 4-phenyl-",,,22330,DTXSID70870772,C1OC(CCO1)c1ccccc1,"InChI=1S/C10H12O2/c1-2-4-9(5-3-1)10-6-7-11-8-12-10/h1-5,10H,6-8H2",RCJRILMVFLGCJY-UHFFFAOYSA-N,?,247.0,103364
103365,772-01-0,772-01-0,C1CCOC(O1)c1ccccc1,"1,3-Dioxane, 2-phenyl-","1,3-Dioxane, 2-phenyl-","2-Phenyl-1,3-dioxane",22331,DTXSID9061122,C1CCOC(O1)c1ccccc1,"InChI=1S/C10H12O2/c1-2-5-9(6-3-1)10-11-7-4-8-12-10/h1-3,5-6,10H,4,7-8H2",LNEMDIUSUQPKIP-UHFFFAOYSA-N,?,253.0,103365
103368,776-75-0,776-75-0,O=C(c1ccccc1)N1CCCCC1,"PIPERIDINE, 1-BENZOYL-",N-Benzoylpiperidine,phenyl-piperidin-1-ylmethanone,22333,DTXSID80228265,O=C(c1ccccc1)N1CCCCC1,"InChI=1S/C12H15NO/c14-12(11-7-3-1-4-8-11)13-9-5-2-6-10-13/h1,3-4,7-8H,2,5-6,9-10H2",YXTROGRGRSPWKL-UHFFFAOYSA-N,?,320.5,103368
103369,777-37-7,777-37-7,[O-][N+](=O)c1cc(c(Cl)cc1)C(F)(F)F,"Benzene, 1-chloro-4-nitro-2-(trifluoromethyl)-",2-Chloro-5-nitrobenzotrifluoride,1-chloro-4-nitro-2-(trifluoromethyl)benzene,22334,DTXSID3061130,[O-][N+](=O)c1cc(c(Cl)cc1)C(F)(F)F,"InChI=1S/C7H3ClF3NO2/c8-6-2-1-4(12(13)14)3-5(6)7(9,10)11/h1-3H",HQROXDLWVGFPDE-UHFFFAOYSA-N,?,232.0,103369
103370,778-22-3,778-22-3,CC(C)(c1ccccc1)c1ccccc1,"BENZENE, 1,1'-(1-METHYLETHYLIDENE)BIS-","2,2-Diphenylpropane","1,1'-propane-2,2-diyldibenzene",22335,DTXSID8047892,CC(C)(c1ccccc1)c1ccccc1,"InChI=1S/C15H16/c1-15(2,13-9-5-3-6-10-13)14-11-7-4-8-12-14/h3-12H,1-2H3",MILSYCKGLDDVLM-UHFFFAOYSA-N,?,282.5,103370
103373,811-95-0,811-95-0,FC(Cl)(Cl)CCl,"1,1,2-trichloro-1-fluoroethane","1,1,2-Trichloro-1-fluoroethane","1,1,2-Trichloro-1-fluoroethane",22337,DTXSID70230897,FC(Cl)(Cl)CCl,"InChI=1S/C2H2Cl3F/c3-1-2(4,5)6/h1H2",ZKVMMSGRDBQIOQ-UHFFFAOYSA-N,?,88.0,103373
103374,811-97-2,811-97-2,FCC(F)(F)F,"1,1,1,2-TETRAFLUOROETHANE","1,1,1,2-Tetrafluoroethane","1,1,1,2-tetrafluoroethane",22338,DTXSID1021324,FCC(F)(F)F,"InChI=1S/C2H2F4/c3-1-2(4,5)6/h1H2",LVGUZGTVOIAKKC-UHFFFAOYSA-N,?,-26.0,103374
103375,812-01-1,812-01-1,COS(=O)(=O)Cl,Chlorosulfuric acid methyl ester,Methyl chlorosulphate,chlorosulfonyloxymethane,22339,DTXSID10230937,COS(=O)(=O)Cl,"InChI=1S/CH3ClO3S/c1-5-6(2,3)4/h1H3",KNVLCWQKYHCADB-UHFFFAOYSA-N,?,134.0,103375
103377,812-58-8,812-58-8,FC(F)(Br)C(F)(F)C(F)(F)C(F)(F)C(F)(F)C(F)(F)C(F)(F)C(F)(F)Br,"1,8-Dibromohexadecafluorooctane","1,8-Dibromoperfluorooctane",C8Br2F16,22341,DTXSID80371604,FC(F)(Br)C(F)(F)C(F)(F)C(F)(F)C(F)(F)C(F)(F)C(F)(F)C(F)(F)Br,"InChI=1S/C8Br2F16/c9-7(23,24)5(19,20)3(15,16)1(11,12)2(13,14)4(17,18)6(21,22)8(10,25)26",LYRJPHOHVRHNQH-UHFFFAOYSA-N,?,180.0,103377
103378,813-78-5,813-78-5,COP(O)(=O)OC,Dimethyl phosphate,Dimethyl phosphate,dimethyl hydrogen phosphate,22342,DTXSID5025150,COP(O)(=O)OC,"InChI=1S/C2H7O4P/c1-5-7(3,4)6-2/h1-2H3,(H,3,4)",KKUKTXOBAWVSHC-UHFFFAOYSA-N,?,174.0,103378
103379,814-49-3,814-49-3,CCOP(=O)(Cl)OCC,"Phosphorochloridic acid, diethyl ester",Diethyl phosphorochloridate,diethyl phosphorochloridate,22343,DTXSID4052556,CCOP(=O)(Cl)OCC,"InChI=1S/C4H10ClO3P/c1-3-7-9(5,6)8-4-2/h3-4H2,1-2H3",LGTLXDJOAJDFLR-UHFFFAOYSA-N,?,93.5,103379
103381,814-68-6,814-68-6,C=CC(=O)Cl,ACRYLYL CHLORIDE,Acrylyl chloride,prop-2-enoyl chloride,22345,DTXSID1061150,C=CC(=O)Cl,"InChI=1S/C3H3ClO/c1-2-3(4)5/h2H,1H2",HFBMWMNUJJDEQZ-UHFFFAOYSA-N,?,75.5,103381
103382,814-78-8,814-78-8,CC(=O)C(C)=C,"3-Buten-2-one, 3-methyl-",3-Methylbut-3-en-2-one,3-methylbut-3-en-2-one,22346,DTXSID9052557,CC(=O)C(C)=C,"InChI=1S/C5H8O/c1-4(2)5(3)6/h1H2,2-3H3",ZGHFDIIVVIFNPS-UHFFFAOYSA-N,?,98.0,103382
103383,815-17-8,815-17-8,CC(C)(C)C(=O)C(O)=O,"Butanoic acid, 3,3-dimethyl-2-oxo-","3,3-Dimethyl-2-oxobutyric acid",C6H10O3,22347,DTXSID9027314,CC(C)(C)C(=O)C(O)=O,"InChI=1S/C6H10O3/c1-6(2,3)4(7)5(8)9/h1-3H3,(H,8,9)",IAWVHZJZHDSEOC-UHFFFAOYSA-N,?,189.0,103383
103385,815-58-7,815-58-7,O=C(Cl)C(Cl)=C(Cl)Cl,"2-Propenoyl chloride, 2,3,3-trichloro-","2-Propenoyl chloride, 2,3,3-trichloro-","2,3,3-trichloroprop-2-enoyl chloride",22349,DTXSID6061155,O=C(Cl)C(Cl)=C(Cl)Cl,InChI=1S/C3Cl4O/c4-1(2(5)6)3(7)8,BCOSEZGCLGPUSL-UHFFFAOYSA-N,?,158.0,103385
103386,816-11-5,816-11-5,COC(=O)C(CC)CC,"BUTANOIC ACID, 2-ETHYL-, METHYL ESTER",Methyl 2-ethylbutyrate,Methyl 2-ethylbutanoate,22350,DTXSID40231215,COC(=O)C(CC)CC,"InChI=1S/C7H14O2/c1-4-6(5-2)7(8)9-3/h6H,4-5H2,1-3H3",UNEAEGWIVFZPFI-UHFFFAOYSA-N,?,137.0,103386
103387,816-79-5,816-79-5,CC=C(CC)CC,3-ETHYL-2-PENTENE,"2-Pentene, 3-ethyl-",3-Ethylpent-2-ene,22351,DTXSID6061159,CC=C(CC)CC,"InChI=1S/C7H14/c1-4-7(5-2)6-3/h4H,5-6H2,1-3H3",XMYFZAWUNVHVGI-UHFFFAOYSA-N,?,96.0,103387
103389,818-23-5,818-23-5,CCCCCCCC(=O)CCCCCCC,8-PENTADECANONE,8-Pentadecanone,Pentadecan-8-one,22353,DTXSID40231371,CCCCCCCC(=O)CCCCCCC,"InChI=1S/C15H30O/c1-3-5-7-9-11-13-15(16)14-12-10-8-6-4-2/h3-14H2,1-2H3",PQYGSSYFJIJDFK-UHFFFAOYSA-N,?,291.0,103389
103390,818-38-2,818-38-2,CCOC(=O)CCCC(=O)OCC,DIETHYL GLUTARATE,"Pentanedioic acid, diethyl ester",Diethyl pentanedioate,22354,DTXSID5061162,CCOC(=O)CCCC(=O)OCC,"InChI=1S/C9H16O4/c1-3-12-8(10)6-5-7-9(11)13-4-2/h3-7H2,1-2H3",OUWSNHWQZPEFEX-UHFFFAOYSA-N,?,236.5,103390
103391,818-61-1,818-61-1,C=CC(=O)OCCO,2-HYDROXYETHYL ACRYLATE,2-Hydroxyethyl acrylate,2-hydroxyethyl prop-2-enoate,22355,DTXSID2022123,C=CC(=O)OCCO,"InChI=1S/C5H8O3/c1-2-5(7)8-4-3-6/h2,6H,1,3-4H2",OMIGHNLMNHATMP-UHFFFAOYSA-N,?,191.0,103391