ChemID,source_casrn,CAS,SMILES,NAME,preferred_name,iupac,MPID,dsstox_substance_id,Canonical_QSARr,InChI_Code_QSARr,InChI Key_QSARr,Salt_Solvent,Salt_Solvent_ID,MP,ID
100662,78-62-6,78-62-6,C[Si](C)(OCC)OCC,DIMETHYL DIETHOXYSILANE,Diethoxy(dimethyl)silane,diethoxy(dimethyl)silane,27997,DTXSID6052538,C[Si](C)(OCC)OCC,"InChI=1S/C6H16O2Si/c1-5-7-9(3,4)8-6-2/h5-6H2,1-4H3",YYLGKUPAFFKGRQ-UHFFFAOYSA-N,?,,-87.0,100662
100664,78-67-1,78-67-1,CC(C)(C#N)/N=N/C(C)(C)C#N,"2,2'-Azobis(2-methylpropionitrile)","2,2'-Azobis(2-methylpropanenitrile)","2,2'-(E)-diazene-1,2-diylbis(2-methylpropanenitrile)",27999,DTXSID1026457,CC(C)(C#N)N=NC(C)(C)C#N,"InChI=1S/C8H12N4/c1-7(2,5-9)11-12-8(3,4)6-10/h1-4H3/b12-11+",OZAIFHULBGXAKX-VAWYXSNFSA-N,?,,101.5,100664
100666,78-74-0,78-74-0,BrCC(Br)Br,"Ethane, 1,1,2-tribromo-","Ethane, 1,1,2-tribromo-","1,1,2-Tribromoethane",28000,DTXSID4058817,BrCC(Br)Br,"InChI=1S/C2H3Br3/c3-1-2(4)5/h2H,1H2",QUMDOMSJJIFTCA-UHFFFAOYSA-N,?,,-29.3,100666
100668,78-76-2,78-76-2,CCC(C)Br,2-BROMOBUTANE,2-Bromobutane,2-bromobutane,28002,DTXSID7021499,CCC(C)Br,"InChI=1S/C4H9Br/c1-3-4(2)5/h4H,3H2,1-2H3",UPSXAPQYNGXVBF-UHFFFAOYSA-N,?,,-112.0,100668
100669,78-77-3,78-77-3,CC(C)CBr,ISOBUTYL BROMIDE,1-Bromo-2-methylpropane,1-bromo-2-methylpropane,28003,DTXSID1052539,CC(C)CBr,"InChI=1S/C4H9Br/c1-4(2)3-5/h4H,3H2,1-2H3",HLVFKOKELQSXIQ-UHFFFAOYSA-N,?,,-119.0,100669
100670,78-78-4,78-78-4,CCC(C)C,ISOPENTANE,2-Methylbutane,2-methylbutane,28004,DTXSID8025468,CCC(C)C,"InChI=1S/C5H12/c1-4-5(2)3/h5H,4H2,1-3H3",QWTDNUCVQCZILF-UHFFFAOYSA-N,?,,-159.9,100670
100672,78-80-8,78-80-8,CC(=C)C#C,"1-BUTEN-3-YNE, 2-METHYL-","1-Buten-3-yne, 2-methyl-",2-Methylbut-1-en-3-yne,28006,DTXSID20228648,CC(=C)C#C,"InChI=1S/C5H6/c1-4-5(2)3/h1H,2H2,3H3",BOFLDKIFLIFLJA-UHFFFAOYSA-N,?,,-113.0,100672
100673,78-81-9,78-81-9,CC(C)CN,ISOBUTYLAMINE,Isobutylamine,2-methylpropan-1-amine,28007,DTXSID9025459,CC(C)CN,"InChI=1S/C4H11N/c1-4(2)3-5/h4H,3,5H2,1-2H3",KDSNLYIMUZNERS-UHFFFAOYSA-N,?,,-85.0,100673
100674,78-82-0,78-82-0,CC(C)C#N,2-METHYLPROPANENITRILE,2-Methylpropanenitrile,2-methylpropanenitrile,28008,DTXSID5026461,CC(C)C#N,"InChI=1S/C4H7N/c1-4(2)3-5/h4H,1-2H3",LRDFRRGEGBBSRN-UHFFFAOYSA-N,?,,-71.5,100674
100676,78-84-2,78-84-2,CC(C)C=O,ISOBUTYRALDEHYDE,2-Methylpropanal,2-methylpropanal,28010,DTXSID9021635,CC(C)C=O,"InChI=1S/C4H8O/c1-4(2)3-5/h3-4H,1-2H3",AMIMRNSIRUDHCM-UHFFFAOYSA-N,?,,-65.9,100676
100677,78-85-3,78-85-3,CC(=C)C=O,METHACROLEIN,Methacrylaldehyde,methacrylaldehyde,28011,DTXSID0052540,CC(=C)C=O,"InChI=1S/C4H6O/c1-4(2)3-5/h3H,1H2,2H3",STNJBCKSHOAVAJ-UHFFFAOYSA-N,?,,-81.0,100677
100678,78-86-4,78-86-4,CCC(C)Cl,2-CHLOROBUTANE,2-Chlorobutane,2-chlorobutane,28012,DTXSID9023966,CCC(C)Cl,"InChI=1S/C4H9Cl/c1-3-4(2)5/h4H,3H2,1-2H3",BSPCSKHALVHRSR-UHFFFAOYSA-N,?,,-140.0,100678
100681,78-92-2,78-92-2,CCC(C)O,2-BUTANOL,2-Butanol,butan-2-ol,28014,DTXSID9021762,CCC(C)O,"InChI=1S/C4H10O/c1-3-4(2)5/h4-5H,3H2,1-2H3",BTANRVKWQNVYAZ-UHFFFAOYSA-N,?,,-114.7,100681
100682,78-93-3,78-93-3,CCC(C)=O,2-BUTANONE,Methyl ethyl ketone,butan-2-one,28015,DTXSID3021516,CCC(C)=O,"InChI=1S/C4H8O/c1-3-4(2)5/h3H2,1-2H3",ZWEHNKRNPOVVGH-UHFFFAOYSA-N,?,,-86.6,100682
100684,78-96-6,78-96-6,CC(O)CN,1-AMINO-2-PROPANOL,1-Amino-2-propanol,1-aminopropan-2-ol,28017,DTXSID9021764,CC(O)CN,"InChI=1S/C3H9NO/c1-3(5)2-4/h3,5H,2,4H2,1H3",HXKKHQJGJAFBHI-UHFFFAOYSA-N,?,,25.0,100684
100685,78-97-7,78-97-7,CC(O)C#N,2-HYDROXYPROPANENITRILE,Lactonitrile,2-hydroxypropanenitrile,28018,DTXSID6025432,CC(O)C#N,"InChI=1S/C3H5NO/c1-3(5)2-4/h3,5H,1H3",WOFDVDFSGLBFAC-UHFFFAOYSA-N,?,,-40.0,100685
100686,79-00-5,79-00-5,ClCC(Cl)Cl,"1,1,2-TRICHLOROETHANE","1,1,2-Trichloroethane","1,1,2-trichloroethane",28019,DTXSID5021380,ClCC(Cl)Cl,"InChI=1S/C2H3Cl3/c3-1-2(4)5/h2H,1H2",UBOXGVDOUJQMTN-UHFFFAOYSA-N,?,,-36.6,100686
100689,79-03-8,79-03-8,CCC(=O)Cl,Propanoyl chloride,Propanoyl chloride,Propanoyl chloride,28021,DTXSID4058819,CCC(=O)Cl,"InChI=1S/C3H5ClO/c1-2-3(4)5/h2H2,1H3",RZWZRACFZGVKFM-UHFFFAOYSA-N,?,,-94.0,100689
100690,79-04-9,79-04-9,O=C(Cl)CCl,CHLOROACETYLCHLORIDE,Chloroacetyl chloride,chloroacetyl chloride,28022,DTXSID4026472,O=C(Cl)CCl,InChI=1S/C2H2Cl2O/c3-1-2(4)5/h1H2,VGCXGMAHQTYDJK-UHFFFAOYSA-N,?,,-22.0,100690
100692,79-06-1,79-06-1,C=CC(N)=O,ACRYLAMIDE,Acrylamide,prop-2-enamide,28024,DTXSID5020027,C=CC(N)=O,"InChI=1S/C3H5NO/c1-2-3(4)5/h2H,1H2,(H2,4,5)",HRPVXLWXLXDGHG-UHFFFAOYSA-N,?,,84.5,100692
100693,79-07-2,79-07-2,NC(=O)CCl,CHLOROACETAMIDE,Chloroacetamide,C2H4ClNO,28025,DTXSID9041570,NC(=O)CCl,"InChI=1S/C2H4ClNO/c3-1-2(4)5/h1H2,(H2,4,5)",VXIVSQZSERGHQP-UHFFFAOYSA-N,?,,121.0,100693
100694,79-08-3,79-08-3,OC(=O)CBr,BROMOACETIC ACID,Bromoacetic acid,bromoacetic acid,28026,DTXSID7021495,OC(=O)CBr,"InChI=1S/C2H3BrO2/c3-1-2(4)5/h1H2,(H,4,5)",KDPAWGWELVVRCH-UHFFFAOYSA-N,?,,50.0,100694
100696,79-10-7,79-10-7,C=CC(O)=O,ACRYLIC ACID,Acrylic acid,prop-2-enoic acid,28028,DTXSID0039229,C=CC(O)=O,"InChI=1S/C3H4O2/c1-2-3(4)5/h2H,1H2,(H,4,5)",NIXOWILDQLNWCW-UHFFFAOYSA-N,?,,13.5,100696
100697,79-11-8,79-11-8,OC(=O)CCl,CHLOROACETIC ACID,Chloroacetic acid,chloroacetic acid,28029,DTXSID4020901,OC(=O)CCl,"InChI=1S/C2H3ClO2/c3-1-2(4)5/h1H2,(H,4,5)",FOCAUTSVDIKZOP-UHFFFAOYSA-N,?,,63.0,100697
100698,79-14-1,79-14-1,OCC(O)=O,HYDROXYACETIC ACID,Glycolic acid,hydroxyacetic acid,28030,DTXSID0025363,OCC(O)=O,"InChI=1S/C2H4O3/c3-1-2(4)5/h3H,1H2,(H,4,5)",AEMRFAOFKBGASW-UHFFFAOYSA-N,?,,79.5,100698
100700,79-16-3,79-16-3,CNC(C)=O,N-METHYLACETAMIDE,N-Methylacetamide,N-methylacetamide,28032,DTXSID0047167,CNC(C)=O,"InChI=1S/C3H7NO/c1-3(5)4-2/h1-2H3,(H,4,5)",OHLUUHNLEMFGTQ-UHFFFAOYSA-N,?,,28.0,100700
100701,79-19-6,79-19-6,NNC(N)=S,THIOSEMICARBAZIDE,Thiosemicarbazide,hydrazinecarbothioamide,28033,DTXSID9021346,NNC(N)=S,"InChI=1S/CH5N3S/c2-1(5)4-3/h3H2,(H3,2,4,5)",BRWIZMBXBAOCCF-UHFFFAOYSA-N,?,,183.0,100701
100702,79-20-9,79-20-9,COC(C)=O,METHYL ACETATE,Methyl acetate,methyl acetate,28034,DTXSID4021767,COC(C)=O,InChI=1S/C3H6O2/c1-3(4)5-2/h1-2H3,KXKVLQRXCPHEJC-UHFFFAOYSA-N,?,,-98.0,100702
100704,79-22-1,79-22-1,COC(=O)Cl,METHYL CHLOROFORMATE,Methyl chlorocarbonate,methyl carbonochloridate,28036,DTXSID0024185,COC(=O)Cl,InChI=1S/C2H3ClO2/c1-5-2(3)4/h1H3,XMJHPCRAQCTCFT-UHFFFAOYSA-N,?,,-61.0,100704
100705,79-24-3,79-24-3,CC[N+]([O-])=O,NITROETHANE,Nitroethane,nitroethane,28037,DTXSID8020969,CC[N+]([O-])=O,"InChI=1S/C2H5NO2/c1-2-3(4)5/h2H2,1H3",MCSAJNNLRCFZED-UHFFFAOYSA-N,?,,-89.5,100705
100706,79-27-6,79-27-6,BrC(Br)C(Br)Br,"1,1,2,2-TETRABROMOETHANE","1,1,2,2-Tetrabromoethane","1,1,2,2-tetrabromoethane",28038,DTXSID1026083,BrC(Br)C(Br)Br,InChI=1S/C2H2Br4/c3-1(4)2(5)6/h1-2H,QXSZNDIIPUOQMB-UHFFFAOYSA-N,?,,0.0,100706
100708,79-29-8,79-29-8,CC(C)C(C)C,"2,3-DIMETHYLBUTANE","2,3-Dimethylbutane","2,3-dimethylbutane",28040,DTXSID9025112,CC(C)C(C)C,"InChI=1S/C6H14/c1-5(2)6(3)4/h5-6H,1-4H3",ZFFMLCVRJBZUDZ-UHFFFAOYSA-N,?,,-128.8,100708
100709,79-30-1,79-30-1,CC(C)C(=O)Cl,"Propanoyl chloride, 2-methyl-",2-Methylpropanoyl chloride,2-methylpropanoyl chloride,28041,DTXSID0052542,CC(C)C(=O)Cl,"InChI=1S/C4H7ClO/c1-3(2)4(5)6/h3H,1-2H3",DGMOBVGABMBZSB-UHFFFAOYSA-N,?,,-90.0,100709
100710,79-31-2,79-31-2,CC(C)C(O)=O,ISOBUTYRIC ACID,2-Methylpropanoic acid,2-methylpropanoic acid,28042,DTXSID4021636,CC(C)C(O)=O,"InChI=1S/C4H8O2/c1-3(2)4(5)6/h3H,1-2H3,(H,5,6)",KQNPFQTWMSNSAP-UHFFFAOYSA-N,?,,-46.0,100710
100713,79-35-6,79-35-6,FC(F)=C(Cl)Cl,"1,1-DICHLORO-2,2-DIFLUOROETHYLENE","Ethene, 1,1-dichloro-2,2-difluoro-","1,1-dichloro-2,2-difluoroethene",28045,DTXSID6073150,FC(F)=C(Cl)Cl,InChI=1S/C2Cl2F2/c3-1(4)2(5)6,QDGONURINHVBEW-UHFFFAOYSA-N,?,,-116.0,100713
100714,79-37-8,79-37-8,O=C(Cl)C(=O)Cl,Ethanedioyl dichloride,Ethanedioyl dichloride,Oxalyl dichloride,28046,DTXSID3058822,O=C(Cl)C(=O)Cl,InChI=1S/C2Cl2O2/c3-1(5)2(4)6,CTSLXHKWHWQRSH-UHFFFAOYSA-N,?,,-16.0,100714
100715,79-38-9,79-38-9,FC(F)=C(F)Cl,CHLOROTRIFLUOROETHYLENE,Chlorotrifluoroethylene,"1-chloro-1,2,2-trifluoroethene",28047,DTXSID3026485,FC(F)=C(F)Cl,InChI=1S/C2ClF3/c3-1(4)2(5)6,UUAGAQFQZIEFAH-UHFFFAOYSA-N,?,,-158.0,100715
100717,79-41-4,79-41-4,CC(=C)C(O)=O,METHACRYLIC ACID,Methacrylic acid,2-methylprop-2-enoic acid,28049,DTXSID3025542,CC(=C)C(O)=O,"InChI=1S/C4H6O2/c1-3(2)4(5)6/h1H2,2H3,(H,5,6)",CERQOIWHTDAKMF-UHFFFAOYSA-N,?,,16.0,100717
100718,79-42-5,33178-96-0,C[C@@H](S)C(O)=O,"Propanoic acid, 2-mercapto-",(2R)-2-sulfanylpropanoic acid,C3H6O2S,28050,DTXSID60427592,CC(S)C(O)=O,"InChI=1S/C3H6O2S/c1-2(6)3(4)5/h2,6H,1H3,(H,4,5)",PMNLUUOXGOOLSP-UHFFFAOYSA-N,?,,12.0,100718
100719,79-43-6,79-43-6,OC(=O)C(Cl)Cl,DICHLOROACETIC ACID,Dichloroacetic acid,dichloroacetic acid,28051,DTXSID2020428,OC(=O)C(Cl)Cl,"InChI=1S/C2H2Cl2O2/c3-1(4)2(5)6/h1H,(H,5,6)",JXTHNDFMNIQAHM-UHFFFAOYSA-N,?,,13.5,100719
100721,79-46-9,79-46-9,CC(C)[N+]([O-])=O,2-NITROPROPANE,2-Nitropropane,2-nitropropane,28053,DTXSID6020981,CC(C)[N+]([O-])=O,"InChI=1S/C3H7NO2/c1-3(2)4(5)6/h3H,1-2H3",FGLBSLMDCBOPQK-UHFFFAOYSA-N,?,,-91.3,100721
100722,79-49-2,79-49-2,O=C(C(Br)Br)C(Br)(Br)Br,"2-Propanone, 1,1,1,3,3-pentabromo-",Pentabromoacetone,"1,1,1,3,3-pentabromopropan-2-one",28054,DTXSID10229487,O=C(C(Br)Br)C(Br)(Br)Br,"InChI=1S/C3HBr5O/c4-2(5)1(9)3(6,7)8/h2H",OEQPNRAFDGLBAW-UHFFFAOYSA-N,?,,79.5,100722
100723,79-53-8,79-53-8,O=C(C(F)(F)Cl)C(F)(F)F,CHLOROPENTAFLUOROACETONE,"2-Propanone, 1-chloro-1,1,3,3,3-pentafluoro-","1-chloro-1,1,3,3,3-pentafluoropropan-2-one",28055,DTXSID6073152,O=C(C(F)(F)Cl)C(F)(F)F,"InChI=1S/C3ClF5O/c4-2(5,6)1(10)3(7,8)9",OJUUDWYPNQALHZ-UHFFFAOYSA-N,?,,-133.0,100723
100725,79-57-2,79-57-2,C[C@]1(O)[C@H]2[C@H](O)[C@H]3[C@@H](C(O)=C(C(N)=O)C(=O)[C@@]3(O)C(O)=C2C(=O)c2c1cccc2O)N(C)C,OXYTETRACYLCINE,Oxytetracycline,"(4S,4aR,5S,5aR,6S,12aS)-4-(dimethylamino)-3,5,6,10,12,12a-hexahydroxy-6-methyl-1,11-dioxo-1,4,4a,5,5a,6,11,12a-octahydrotetracene-2-carboxamide",28057,DTXSID1034260,CC1(O)C2C(O)C3C(C(O)=C(C(N)=O)C(=O)C3(O)C(O)=C2C(=O)c2c1cccc2O)N(C)C,"InChI=1S/C22H24N2O9/c1-21(32)7-5-4-6-8(25)9(7)15(26)10-12(21)17(28)13-14(24(2)3)16(27)11(20(23)31)19(30)22(13,33)18(10)29/h4-6,12-14,17,25,27-29,32-33H,1-3H3,(H2,23,31)",IWVCMVBTMGNXQD-UHFFFAOYSA-N,?,,184.5,100725
100727,79-63-0,79-63-0,CC1(C)[C@@H](O)CC[C@@]2(C)[C@H]1CCC1=C2CC[C@]2(C)[C@H](CC[C@]21C)[C@H](C)CCC=C(C)C,"LANOSTA-8,24-DIEN-3-OL, (3.BETA.)-",Lanosterol,"(3beta)-lanosta-8,24-dien-3-ol",28058,DTXSID1040744,CC1(C)C(O)CCC2(C)C1CCC1=C2CCC2(C)C(CCC21C)C(C)CCC=C(C)C,"InChI=1S/C30H50O/c1-20(2)10-9-11-21(3)22-14-18-30(8)24-12-13-25-27(4,5)26(31)16-17-28(25,6)23(24)15-19-29(22,30)7/h10,21-22,25-26,31H,9,11-19H2,1-8H3",CAHGCLMLTWQZNJ-UHFFFAOYSA-N,?,,140.5,100727
100728,79-64-1,79-64-1,C[C@H]1C[C@@H]2[C@H](CC[C@@]3(C)[C@H]2CC[C@@]3(O)C#CC)[C@@]2(C)CCC(=O)C=C21,Dimethisterone,Dimethisteron,"(6S,8R,9S,10R,13S,14S,17S)-17-hydroxy-6,10,13-trimethyl-17-(prop-1-yn-1-yl)-1,2,6,7,8,9,10,11,12,13,14,15,16,17-tetradecahydro-3H-cyclopenta[a]phenanthren-3-one (non-preferred name)",28059,DTXSID5057834,CC1CC2C(CCC3(C)C2CCC3(O)C#CC)C2(C)CCC(=O)C=C21,"InChI=1S/C23H32O2/c1-5-9-23(25)12-8-19-17-13-15(2)20-14-16(24)6-10-21(20,3)18(17)7-11-22(19,23)4/h14-15,17-19,25H,6-8,10-13H2,1-4H3",LVHOURKCKUYIGK-UHFFFAOYSA-N,?,,102.0,100728
100730,79-81-2,79-81-2,CCCCCCCCCCCCCCCC(=O)OC/C=C(\C)/C=C/C=C(\C)/C=C/C1=C(C)CCCC1(C)C,Retinol palmitate,Retinol palmitate,O~15~-hexadecanoylretinol,28061,DTXSID1021241,CCCCCCCCCCCCCCCC(=O)OCC=C(C)C=CC=C(C)C=CC1=C(C)CCCC1(C)C,"InChI=1S/C36H60O2/c1-7-8-9-10-11-12-13-14-15-16-17-18-19-25-35(37)38-30-28-32(3)23-20-22-31(2)26-27-34-33(4)24-21-29-36(34,5)6/h20,22-23,26-28H,7-19,21,24-25,29-30H2,1-6H3/b23-20+,27-26+,31-22+,32-28+",VYGQUTWHTHXGQB-FFHKNEKCSA-N,?,,28.5,100730
100732,79-92-5|5794-03-6,79-92-5|5794-03-6,CC1(C)C2CC(CC2)C1=C,"CAMPHENE, (+)-Camphene",Camphene,C10H16,28062|34464,DTXSID8026488|DTXSID10872336,CC1(C)C2CC(CC2)C1=C,"InChI=1S/C10H16/c1-7-8-4-5-9(6-8)10(7,2)3/h8-9H,1,4-6H2,2-3H3",CRPUJAZIXJMDBK-UHFFFAOYSA-N,?,,51.6,100732
100733,79-94-7,79-94-7,CC(C)(c1cc(Br)c(O)c(Br)c1)c1cc(Br)c(O)c(Br)c1,"2,2-BIS(4-HYDROXY-3,5-DIBROMOPHENYL)PROPANE","3,3',5,5'-Tetrabromobisphenol A","4,4'-propane-2,2-diylbis(2,6-dibromophenol)",28063,DTXSID1026081,CC(C)(c1cc(Br)c(O)c(Br)c1)c1cc(Br)c(O)c(Br)c1,"InChI=1S/C15H12Br4O2/c1-15(2,7-3-9(16)13(20)10(17)4-7)8-5-11(18)14(21)12(19)6-8/h3-6,20-21H,1-2H3",VEORPZCZECFIRK-UHFFFAOYSA-N,?,,181.0,100733
100735,79-96-9,79-96-9,CC(C)(c1cc(c(O)cc1)C(C)(C)C)c1cc(c(O)cc1)C(C)(C)C,"Phenol, 4,4'-(1-methylethylidene)bis(2-(1,1-dime","4,4'-Propane-2,2-diylbis(2-tert-butylphenol)","4,4'-propane-2,2-diylbis(2-tert-butylphenol)",28065,DTXSID2026490,CC(C)(c1cc(c(O)cc1)C(C)(C)C)c1cc(c(O)cc1)C(C)(C)C,"InChI=1S/C23H32O2/c1-21(2,3)17-13-15(9-11-19(17)24)23(7,8)16-10-12-20(25)18(14-16)22(4,5)6/h9-14,24-25H,1-8H3",ZDRSNHRWLQQICP-UHFFFAOYSA-N,?,,114.4,100735
100736,79-97-0,79-97-0,CC(C)(c1cc(C)c(O)cc1)c1cc(C)c(O)cc1,"3,3'-Dimethylbisphenol A","3,3'-Dimethylbisphenol A","4,4'-propane-2,2-diylbis(2-methylphenol)",28066,DTXSID8047890,CC(C)(c1cc(C)c(O)cc1)c1cc(C)c(O)cc1,"InChI=1S/C17H20O2/c1-11-9-13(5-7-15(11)18)17(3,4)14-6-8-16(19)12(2)10-14/h5-10,18-19H,1-4H3",YMTYZTXUZLQUSF-UHFFFAOYSA-N,?,,139.0,100736
100737,80-00-2,80-00-2,O=S(=O)(c1ccccc1)c1ccc(Cl)cc1,SULPHENONE,4-Chlorophenyl phenyl sulfone,4-chlorophenyl phenyl sulfone,28067,DTXSID9042259,O=S(=O)(c1ccccc1)c1ccc(Cl)cc1,"InChI=1S/C12H9ClO2S/c13-10-6-8-12(9-7-10)16(14,15)11-4-2-1-3-5-11/h1-9H",OFCFYWOKHPOXKF-UHFFFAOYSA-N,?,,94.0,100737
100739,80-03-5,80-03-5,Nc1ccc(cc1)S(=O)(=O)c1ccc(cc1)NCC(O)=O,Acediasulfone,Acediasulfone,2-[[4-(4-aminophenyl)sulfonylphenyl]amino]acetic acid,28069,DTXSID00229991,Nc1ccc(cc1)S(=O)(=O)c1ccc(cc1)NCC(O)=O,"InChI=1S/C14H14N2O4S/c15-10-1-5-12(6-2-10)21(19,20)13-7-3-11(4-8-13)16-9-14(17)18/h1-8,16H,9,15H2,(H,17,18)",FKKUMFTYSTZUJG-UHFFFAOYSA-N,?,,194.0,100739
100740,80-05-7,80-05-7,CC(C)(c1ccc(O)cc1)c1ccc(O)cc1,DIPHENYLOLPROPANE,Bisphenol A,"4,4'-propane-2,2-diyldiphenol",28070,DTXSID7020182,CC(C)(c1ccc(O)cc1)c1ccc(O)cc1,"InChI=1S/C15H16O2/c1-15(2,11-3-7-13(16)8-4-11)12-5-9-14(17)10-6-12/h3-10,16-17H,1-2H3",IISBACLAFKSPIT-UHFFFAOYSA-N,?,,153.0,100740
100741,80-06-8,80-06-8,CC(O)(c1ccc(Cl)cc1)c1ccc(Cl)cc1,DIMITE,Chlorfenethol,"1,1-bis(4-chlorophenyl)ethanol",28071,DTXSID7040283,CC(O)(c1ccc(Cl)cc1)c1ccc(Cl)cc1,"InChI=1S/C14H12Cl2O/c1-14(17,10-2-6-12(15)7-3-10)11-4-8-13(16)9-5-11/h2-9,17H,1H3",URYAFVKLYSEINW-UHFFFAOYSA-N,?,,70.0,100741
100743,80-08-0,80-08-0,Nc1ccc(cc1)S(=O)(=O)c1ccc(N)cc1,DI(P-AMINOPHENYL)SULFONE,Dapsone,"4,4'-sulfonyldianiline",28073,DTXSID4020371,Nc1ccc(cc1)S(=O)(=O)c1ccc(N)cc1,"InChI=1S/C12H12N2O2S/c13-9-1-5-11(6-2-9)17(15,16)12-7-3-10(14)4-8-12/h1-8H,13-14H2",MQJKPEGWNLWLTK-UHFFFAOYSA-N,?,,175.5,100743
100744,80-09-1,80-09-1,Oc1ccc(cc1)S(=O)(=O)c1ccc(O)cc1,"Phenol, 4,4'-sulfonylbis-","4,4'-Sulfonyldiphenol","4,4'-sulfonyldiphenol",28074,DTXSID3022409,Oc1ccc(cc1)S(=O)(=O)c1ccc(O)cc1,"InChI=1S/C12H10O4S/c13-9-1-5-11(6-2-9)17(15,16)12-7-3-10(14)4-8-12/h1-8,13-14H",VPWNQTHUCYMVMZ-UHFFFAOYSA-N,?,,240.5,100744
100745,80-11-5,80-11-5,Cc1ccc(cc1)S(=O)(=O)N(C)N=O,"BENZENESULFONAMIDE, N,4-DIMETHYL-N-NITROSO-","Benzenesulfonamide, N,4-dimethyl-N-nitroso-","N,4-dimethyl-N-nitrosobenzenesulfonamide",28075,DTXSID8058827,Cc1ccc(cc1)S(=O)(=O)N(C)N=O,"InChI=1S/C8H10N2O3S/c1-7-3-5-8(6-4-7)14(12,13)10(2)9-11/h3-6H,1-2H3",FFKZOUIEAHOBHW-UHFFFAOYSA-N,?,,60.0,100745
100747,80-17-1,80-17-1,NNS(=O)(=O)c1ccccc1,BENZENESULFONIC ACID HYDRAZIDE,Benzenesulfonyl hydrazide,benzenesulfonohydrazide,28077,DTXSID0052548,NNS(=O)(=O)c1ccccc1,"InChI=1S/C6H8N2O2S/c7-8-11(9,10)6-4-2-1-3-5-6/h1-5,8H,7H2",VJRITMATACIYAF-UHFFFAOYSA-N,?,,102.0,100747
100748,80-28-4,80-28-4,Cc1ccc(cc1)S(=O)(=O)Nc1ccccc1C,p-Toluenesulfono-o-toluidide,p-Toluenesulfono-o-toluidide,4-Methyl-N-(2-methylphenyl)benzenesulfonamide,28078,DTXSID20229993,Cc1ccc(cc1)S(=O)(=O)Nc1ccccc1C,"InChI=1S/C14H15NO2S/c1-11-7-9-13(10-8-11)18(16,17)15-14-6-4-3-5-12(14)2/h3-10,15H,1-2H3",SIPGNSRRMHEOSA-UHFFFAOYSA-N,?,,110.0,100748
100749,80-32-0,80-32-0,Nc1ccc(cc1)S(=O)(=O)Nc1ccc(Cl)[n][n]1,Sulfachlorpyridazine,Sulfachloropyridazine,4-amino-N-(6-chloropyridazin-3-yl)benzenesulfonamide,28079,DTXSID9045265,Nc1ccc(cc1)S(=O)(=O)Nc1ccc(Cl)[n][n]1,"InChI=1S/C10H9ClN4O2S/c11-9-5-6-10(14-13-9)15-18(16,17)8-3-1-7(12)2-4-8/h1-6H,12H2,(H,14,15)",XOXHILFPRYWFOD-UHFFFAOYSA-N,?,,187.0,100749
100751,80-35-3,80-35-3,COc1ccc(NS(=O)(=O)c2ccc(N)cc2)[n][n]1,SULFAMETHOXYPYRIDAZINE,Sulfamethoxypyridazine,4-amino-N-(6-methoxypyridazin-3-yl)benzenesulfonamide,28081,DTXSID5023611,COc1ccc(NS(=O)(=O)c2ccc(N)cc2)[n][n]1,"InChI=1S/C11H12N4O3S/c1-18-11-7-6-10(13-14-11)15-19(16,17)9-4-2-8(12)3-5-9/h2-7H,12H2,1H3,(H,13,15)",VLYWMPOKSSWJAL-UHFFFAOYSA-N,?,,182.5,100751
100752,80-40-0,80-40-0,Cc1ccc(cc1)S(=O)(=O)OCC,ETHYL-P-METHYLBENZENESULFONATE,"Benzenesulfonic acid, 4-methyl-, ethyl ester",ethyl 4-methylbenzenesulfonate,28082,DTXSID2058833,Cc1ccc(cc1)S(=O)(=O)OCC,"InChI=1S/C9H12O3S/c1-3-12-13(10,11)9-6-4-8(2)5-7-9/h4-7H,3H2,1-2H3",VRZVPALEJCLXPR-UHFFFAOYSA-N,?,,34.5,100752
100753,80-43-3,80-43-3,CC(C)(OOC(C)(C)c1ccccc1)c1ccccc1,"PEROXIDE, BIS(1-METHYL-1-PHENYLETHYL)",Dicumyl peroxide,bis(2-phenylpropan-2-yl) peroxide,28083,DTXSID1025017,CC(C)(OOC(C)(C)c1ccccc1)c1ccccc1,"InChI=1S/C18H22O2/c1-17(2,15-11-7-5-8-12-15)19-20-18(3,4)16-13-9-6-10-14-16/h5-14H,1-4H3",XMNIXWIUMCBBBL-UHFFFAOYSA-N,?,,40.6,100753
100755,80-48-8,80-48-8,Cc1ccc(cc1)S(=O)(=O)OC,"Benzenesulfonic acid, 4-methyl-, methyl ester",Methyl toluene-4-sulphonate,methyl 4-methylbenzenesulfonate,28085,DTXSID4052550,Cc1ccc(cc1)S(=O)(=O)OC,"InChI=1S/C8H10O3S/c1-7-3-5-8(6-4-7)12(9,10)11-2/h3-6H,1-2H3",VUQUOGPMUUJORT-UHFFFAOYSA-N,?,,28.5,100755
100758,80-52-4,80-52-4,CC(C)(N)C1CCC(C)(N)CC1,"p-Menthane-1,8-diyldiamine","1,8-Diamino-p-menthane",4-(2-aminopropan-2-yl)-1-methylcyclohexanamine,28086,DTXSID3021772,CC(C)(N)C1CCC(C)(N)CC1,"InChI=1S/C10H22N2/c1-9(2,11)8-4-6-10(3,12)7-5-8/h8H,4-7,11-12H2,1-3H3",KOGSPLLRMRSADR-UHFFFAOYSA-N,?,,-45.0,100758
100759,80-53-5|565-50-4,80-53-5,CC(C)(O)C1CCC(C)(O)CC1,"Terpin, trans-Terpin",Terpin,4-(2-hydroxypropan-2-yl)-1-methylcyclohexanol,28087|31223,DTXSID7023643,CC(C)(O)C1CCC(C)(O)CC1,"InChI=1S/C10H20O2/c1-9(2,11)8-4-6-10(3,12)7-5-8/h8,11-12H,4-7H2,1-3H3",RBNWAMSGVWEHFP-UHFFFAOYSA-N,?,,158.25,100759
100761,80-58-0,32659-49-7,CC[C@H](Br)C(O)=O,A-BROMOBUTYRIC ACID,"alpha-Bromobutyric acid, (S)-",(2S)-2-bromobutanoic acid,28089,DTXSID40186332,CCC(Br)C(O)=O,"InChI=1S/C4H7BrO2/c1-2-3(5)4(6)7/h3H,2H2,1H3,(H,6,7)",YAQLSKVCTLCIIE-UHFFFAOYSA-N,?,,-4.0,100761
100762,80-59-1,NOCAS_861643,C/C(=C\C)/C(O)=O,TIGLIC ACID,,,28090,DTXSID50861643,CC(=CC)C(O)=O,"InChI=1S/C5H8O2/c1-3-4(2)5(6)7/h3H,1-2H3,(H,6,7)/b4-3-",UIERETOOQGIECD-ARJAWSKDSA-N,?,,64.5,100762
100763,80-60-4,NOCAS_862679,CCC(N)C(O)=O,ALPHA-AMINOBUTYRIC ACID,,,28091,DTXSID90862679,CCC(N)C(O)=O,"InChI=1S/C4H9NO2/c1-2-3(5)4(6)7/h3H,2,5H2,1H3,(H,6,7)",QWCKQJZIFLGMSD-UHFFFAOYSA-N,?,,304.0,100763
100765,80-69-3,80-69-3,OC(C(O)=O)C(O)=O,Tartronic acid,"Propanedioic acid, hydroxy-",2-Hydroxypropanedioic acid,28093,DTXSID6075358,OC(C(O)=O)C(O)=O,"InChI=1S/C3H4O5/c4-1(2(5)6)3(7)8/h1,4H,(H,5,6)(H,7,8)",ROBFUDYVXSDBQM-UHFFFAOYSA-N,?,,157.0,100765
100766,80-71-7,80-71-7,CC1CCC(=O)C=1O,Cyclotene,2-Hydroxy-3-methylcyclopent-2-en-1-one,2-hydroxy-3-methylcyclopent-2-en-1-one,28094,DTXSID4035128,CC1CCC(=O)C=1O,"InChI=1S/C6H8O2/c1-4-2-3-5(7)6(4)8/h8H,2-3H2,1H3",CFAKWWQIUFSQFU-UHFFFAOYSA-N,?,,106.5,100766
100767,80-73-9,80-73-9,CN1CCN(C)C1=O,"1,3-Dimethyl-2-imidazolidinone","N,N'-Dimethylimidazolidinone","1,3-Dimethylimidazolidin-2-one",28095,DTXSID1073153,CN1CCN(C)C1=O,"InChI=1S/C5H10N2O/c1-6-3-4-7(2)5(6)8/h3-4H2,1-2H3",CYSGHNMQYZDMIA-UHFFFAOYSA-N,?,,8.2,100767
100770,80-77-3,80-77-3,CN1C(c2ccc(Cl)cc2)S(=O)(=O)CCC1=O,Chlormezanone,Chlormezanone,"2-(4-chlorophenyl)-3-methyl-1,3-thiazinan-4-one 1,1-dioxide",28097,DTXSID3022798,CN1C(c2ccc(Cl)cc2)S(=O)(=O)CCC1=O,"InChI=1S/C11H12ClNO3S/c1-13-10(14)6-7-17(15,16)11(13)8-2-4-9(12)5-3-8/h2-5,11H,6-7H2,1H3",WEQAYVWKMWHEJO-UHFFFAOYSA-N,?,,116.2,100770