ChemID,source_casrn,CAS,SMILES,NAME,preferred_name,iupac,MPID,dsstox_substance_id,Canonical_QSARr,InChI_Code_QSARr,InChI Key_QSARr,Salt_Solvent,Salt_Solvent_ID,MP,ID
101767,106-63-8,106-63-8,CC(C)COC(=O)C=C,ISOBUTYL ACRYLATE,Isobutyl acrylate,2-methylpropyl prop-2-enoate,29033,DTXSID1021873,CC(C)COC(=O)C=C,"InChI=1S/C7H12O2/c1-4-7(8)9-5-6(2)3/h4,6H,1,5H2,2-3H3",CFVWNXQPGQOHRJ-UHFFFAOYSA-N,?,,-61.0,101767
101768,106-65-0,106-65-0,COC(=O)CCC(=O)OC,DIMETHYL SUCCINATE,Dimethyl succinate,dimethyl butanedioate,29034,DTXSID5025152,COC(=O)CCC(=O)OC,"InChI=1S/C6H10O4/c1-9-5(7)3-4-6(8)10-2/h3-4H2,1-2H3",MUXOBHXGJLMRAB-UHFFFAOYSA-N,?,,19.0,101768
101769,106-70-7,106-70-7,CCCCCC(=O)OC,METHYL HEXANOATE,Methyl hexanoate,methyl hexanoate,29035,DTXSID0047616,CCCCCC(=O)OC,"InChI=1S/C7H14O2/c1-3-4-5-6-7(8)9-2/h3-6H2,1-2H3",NUKZAGXMHTUAFE-UHFFFAOYSA-N,?,,-71.0,101769
101771,106-74-1,106-74-1,CCOCCOC(=O)C=C,2-ETHOXYETHYL ACRYLATE,2-Ethoxyethyl acrylate,2-ethoxyethyl acrylate,29037,DTXSID3051545,CCOCCOC(=O)C=C,"InChI=1S/C7H12O3/c1-3-7(8)10-6-5-9-4-2/h3H,1,4-6H2,2H3",FWWXYLGCHHIKNY-UHFFFAOYSA-N,?,,-47.0,101771
101772,106-79-6,106-79-6,COC(=O)CCCCCCCCC(=O)OC,"Decanedioic acid, dimethyl ester",Dimethyl decanedioate,dimethyl decanedioate,29038,DTXSID1026740,COC(=O)CCCCCCCCC(=O)OC,"InChI=1S/C12H22O4/c1-15-11(13)9-7-5-3-4-6-8-10-12(14)16-2/h3-10H2,1-2H3",ALOUNLDAKADEEB-UHFFFAOYSA-N,?,,38.0,101772
101775,106-93-4,106-93-4,BrCCBr,"1,2-DIBROMOETHANE","1,2-Dibromoethane","1,2-dibromoethane",29040,DTXSID3020415,BrCCBr,InChI=1S/C2H4Br2/c3-1-2-4/h1-2H2,PAAZPARNPHGIKF-UHFFFAOYSA-N,?,,9.9,101775
101776,106-94-5,106-94-5,CCCBr,1-BROMOPROPANE,1-Bromopropane,1-bromopropane,29041,DTXSID6021874,CCCBr,"InChI=1S/C3H7Br/c1-2-3-4/h2-3H2,1H3",CYNYIHKIEHGYOZ-UHFFFAOYSA-N,?,,-110.0,101776
101777,106-95-6,106-95-6,C=CCBr,3-BROMO-1-PROPENE,Allyl bromide,3-bromoprop-1-ene,29042,DTXSID8024442,C=CCBr,"InChI=1S/C3H5Br/c1-2-3-4/h2H,1,3H2",BHELZAPQIKSEDF-UHFFFAOYSA-N,?,,-119.0,101777
101779,106-98-9,106-98-9,CCC=C,1-BUTENE,1-Butene,but-1-ene,29044,DTXSID1026746,CCC=C,"InChI=1S/C4H8/c1-3-4-2/h3H,1,4H2,2H3",VXNZUUAINFGPBY-UHFFFAOYSA-N,?,,-185.3,101779
101780,106-99-0,106-99-0,C=CC=C,"1,3-BUTADIENE","1,3-Butadiene","buta-1,3-diene",29045,DTXSID3020203,C=CC=C,"InChI=1S/C4H6/c1-3-4-2/h3-4H,1-2H2",KAKZBPTYRLMSJV-UHFFFAOYSA-N,?,,-108.9,101780
101781,107-00-6,107-00-6,CCC#C,1-BUTYNE,1-Butyne,but-1-yne,29046,DTXSID4029141,CCC#C,"InChI=1S/C4H6/c1-3-4-2/h1H,4H2,2H3",KDKYADYSIPSCCQ-UHFFFAOYSA-N,?,,-125.7,101781
101784,107-03-9,107-03-9,CCCS,1-PROPANETHIOL,1-Propanethiol,propane-1-thiol,29048,DTXSID5026750,CCCS,"InChI=1S/C3H8S/c1-2-3-4/h4H,2-3H2,1H3",SUVIGLJNEAMWEG-UHFFFAOYSA-N,?,,-113.3,101784
101785,107-04-0,107-04-0,ClCCBr,1-BROMO-2-CHLOROETHANE,1-Chloro-2-bromoethane,1-bromo-2-chloroethane,29049,DTXSID4024775,ClCCBr,InChI=1S/C2H4BrCl/c3-1-2-4/h1-2H2,IBYHHJPAARCAIE-UHFFFAOYSA-N,?,,-16.7,101785
101786,107-05-1,107-05-1,C=CCCl,3-CHLOROPROPYLENE,Allyl chloride,3-chloroprop-1-ene,29050,DTXSID4039231,C=CCCl,"InChI=1S/C3H5Cl/c1-2-3-4/h2H,1,3H2",OSDWBNJEKMUWAV-UHFFFAOYSA-N,?,,-134.5,101786
101788,107-07-3,107-07-3,OCCCl,2-CHLOROETHANOL,2-Chloroethanol,2-chloroethanol,29052,DTXSID1021877,OCCCl,"InChI=1S/C2H5ClO/c3-1-2-4/h4H,1-2H2",SZIFAVKTNFCBPC-UHFFFAOYSA-N,?,,-67.5,101788
101789,107-08-4,26914-02-3,CCCI,1-IODOPROPANE,"Propane, iodo-",1-IODOPROPANE,29053,DTXSID5075317,CCCI,"InChI=1S/C3H7I/c1-2-3-4/h2-3H2,1H3",PVWOIHVRPOBWPI-UHFFFAOYSA-N,?,,-101.3,101789
101790,107-10-8,107-10-8,CCCN,PROPYLAMINE,Propylamine,propan-1-amine,29054,DTXSID6021878,CCCN,"InChI=1S/C3H9N/c1-2-3-4/h2-4H2,1H3",WGYKZJWCGVVSQN-UHFFFAOYSA-N,?,,-83.0,101790
101792,107-12-0,107-12-0,CCC#N,PROPIONITRILE,Propionitrile,propanenitrile,29056,DTXSID1021879,CCC#N,"InChI=1S/C3H5N/c1-2-3-4/h2H2,1H3",FVSKHRXBFJPNKK-UHFFFAOYSA-N,?,,-92.8,101792
101793,107-13-1,107-13-1,C=CC#N,ACRYLONITRILE,Acrylonitrile,prop-2-enenitrile,29057,DTXSID5020029,C=CC#N,"InChI=1S/C3H3N/c1-2-3-4/h2H,1H2",NLHHRLWOUZZQLW-UHFFFAOYSA-N,?,,-83.5,101793
101794,107-15-3,107-15-3,NCCN,"1,2-DIAMINOETHANE",Ethylenediamine,"ethane-1,2-diamine",29058,DTXSID5021881,NCCN,InChI=1S/C2H8N2/c3-1-2-4/h1-4H2,PIICEJLVQHRZGT-UHFFFAOYSA-N,?,,11.1,101794
101796,107-19-7,107-19-7,C#CCO,PROPARGYL ALCOHOL,Propargyl alcohol,prop-2-yn-1-ol,29060,DTXSID5021883,C#CCO,"InChI=1S/C3H4O/c1-2-3-4/h1,4H,3H2",TVDSBUOJIPERQY-UHFFFAOYSA-N,?,,-51.8,101796
101797,107-20-0,107-20-0,O=CCCl,CHLOROACETALDEHYDE,Chloroacetaldehyde,chloroacetaldehyde,29061,DTXSID4020292,O=CCCl,"InChI=1S/C2H3ClO/c3-1-2-4/h2H,1H2",QSKPIOLLBIHNAC-UHFFFAOYSA-N,?,,-16.3,101797
101798,107-21-1,107-21-1,OCCO,ETHYLENE GLYCOL,Ethylene glycol,C2H6O2,29062,DTXSID8020597,OCCO,"InChI=1S/C2H6O2/c3-1-2-4/h3-4H,1-2H2",LYCAIKOWRPUZTN-UHFFFAOYSA-N,?,,-13.0,101798
101800,107-25-5,107-25-5,COC=C,METHYLVINYLETHER,Methoxyethene,ethenyl methyl ether,29064,DTXSID4026761,COC=C,"InChI=1S/C3H6O/c1-3-4-2/h3H,1H2,2H3",XJRBAMWJDBPFIM-UHFFFAOYSA-N,?,,-122.0,101800
101802,107-29-9,107-29-9,C/C=N/O,ACETALDEHYDE OXIME,Acetaldehyde oxime,(1E)-N-hydroxyethanimine,29065,DTXSID2020004,CCN=O,"InChI=1S/C2H5NO/c1-2-3-4/h2H2,1H3",IFYCAQIXDKZDTB-UHFFFAOYSA-N,?,,45.0,101802
101803,107-30-2,107-30-2,COCCl,CHLOROMETHOXYMETHANE,Chloromethyl methyl ether,chloro(methoxy)methane,29066,DTXSID6020307,COCCl,"InChI=1S/C2H5ClO/c1-4-2-3/h2H2,1H3",XJUZRXYOEPSWMB-UHFFFAOYSA-N,?,,-103.5,101803
101805,107-34-6,107-34-6,CCC[As](O)(O)=O,"Arsonic acid, propyl-",1-Propanearsonic acid,propylarsonic acid,29068,DTXSID6058508,CCC[As](O)(O)=O,"InChI=1S/C3H9AsO3/c1-2-3-4(5,6)7/h2-3H2,1H3,(H2,5,6,7)",RVQXTZBOXCETGD-UHFFFAOYSA-N,?,,134.5,101805
101806,107-35-7,107-35-7,NCCS(O)(=O)=O,TAURINE,l-Taurine,2-aminoethanesulfonic acid,29069,DTXSID3021304,NCCS(O)(=O)=O,"InChI=1S/C2H7NO3S/c3-1-2-7(4,5)6/h1-3H2,(H,4,5,6)",XOAAWQZATWQOTB-UHFFFAOYSA-N,?,,328.0,101806
101807,107-37-9,107-37-9,C=CC[Si](Cl)(Cl)Cl,ALLYTRICHLOROSILANE,"Silane, trichloro-2-propen-1-yl-",trichloro-prop-2-enylsilane,29070,DTXSID3059347,C=CC[Si](Cl)(Cl)Cl,"InChI=1S/C3H5Cl3Si/c1-2-3-7(4,5)6/h2H,1,3H2",HKFSBKQQYCMCKO-UHFFFAOYSA-N,?,,35.0,101807
101810,107-40-4,107-40-4,CC(C)=CC(C)(C)C,"2,4,4-TRIMETHYL-2-PENTENE","2,4,4-Trimethyl-2-pentene","2,4,4-trimethylpent-2-ene",29072,DTXSID9026766,CC(C)=CC(C)(C)C,"InChI=1S/C8H16/c1-7(2)6-8(3,4)5/h6H,1-5H3",LAAVYEUJEMRIGF-UHFFFAOYSA-N,?,,-106.3,101810
101811,107-41-5,107-41-5,CC(O)CC(C)(C)O,"2-METHYL-2,4-PENTANEDIOL","2-Methyl-2,4-pentanediol","2-methylpentane-2,4-diol",29073,DTXSID5021885,CC(O)CC(C)(C)O,"InChI=1S/C6H14O2/c1-5(7)4-6(2,3)8/h5,7-8H,4H2,1-3H3",SVTBMSDMJJWYQN-UHFFFAOYSA-N,?,,-50.0,101811
101812,107-44-8,107-44-8,CC(C)OP(C)(=O)F,SARIN,Sarin,propan-2-yl methylphosphonofluoridate,29074,DTXSID0042371,CC(C)OP(C)(=O)F,"InChI=1S/C4H10FO2P/c1-4(2)7-8(3,5)6/h4H,1-3H3",DYAHQFWOVKZOOW-UHFFFAOYSA-N,?,,-57.0,101812
101814,107-47-1,107-47-1,CC(C)(C)SC(C)(C)C,"Propane, 2,2'-thiobis 2-methyl-",tert-Butyl sulfide,2-(tert-butylsulfanyl)-2-methylpropane,29076,DTXSID5021887,CC(C)(C)SC(C)(C)C,"InChI=1S/C8H18S/c1-7(2,3)9-8(4,5)6/h1-6H3",LNMBCRKRCIMQLW-UHFFFAOYSA-N,?,,-9.0,101814
101815,107-48-2,NOCAS_870451,CC(C)(C)CC1(C)CO1,"2-(2,2-Dimethyl-propyl)-2-methyl-oxirane",,,29077,DTXSID90870451,CC(C)(C)CC1(C)CO1,"InChI=1S/C8H16O/c1-7(2,3)5-8(4)6-9-8/h5-6H2,1-4H3",WZHRVCOCPMCGEA-UHFFFAOYSA-N,?,,-64.0,101815
101816,107-50-6,107-50-6,C[Si]1(C)O[Si](C)(C)O[Si](C)(C)O[Si](C)(C)O[Si](C)(C)O[Si](C)(C)O[Si](C)(C)O1,TETRADECAMETHYLCYCLOHEPTASILOXANE,"Cycloheptasiloxane, tetradecamethyl-","2,2,4,4,6,6,8,8,10,10,12,12,14,14-tetradecamethyl-1,3,5,7,9,11,13-heptaoxa-2,4,6,8,10,12,14-heptasilacyclotetradecane",29078,DTXSID8059348,C[Si]1(C)O[Si](C)(C)O[Si](C)(C)O[Si](C)(C)O[Si](C)(C)O[Si](C)(C)O[Si](C)(C)O1,"InChI=1S/C14H42O7Si7/c1-22(2)15-23(3,4)17-25(7,8)19-27(11,12)21-28(13,14)20-26(9,10)18-24(5,6)16-22/h1-14H3",GSANOGQCVHBHIF-UHFFFAOYSA-N,?,,-26.0,101816
101818,107-52-8,107-52-8,C[Si](C)(C)O[Si](C)(C)O[Si](C)(C)O[Si](C)(C)O[Si](C)(C)O[Si](C)(C)C,TETRADECAMETHYLHEXASILOXANE,"Hexasiloxane, tetradecamethyl-",(dimethyl-trimethylsilyloxysilyl)oxy-[(dimethyl-trimethylsilyloxysilyl)oxy-dimethylsilyl]oxy-dimethylsilane,29080,DTXSID3059349,C[Si](C)(C)O[Si](C)(C)O[Si](C)(C)O[Si](C)(C)O[Si](C)(C)O[Si](C)(C)C,"InChI=1S/C14H42O5Si6/c1-20(2,3)15-22(7,8)17-24(11,12)19-25(13,14)18-23(9,10)16-21(4,5)6/h1-14H3",ADANNTOYRVPQLJ-UHFFFAOYSA-N,?,,-59.0,101818
101819,107-58-4,107-58-4,CC(C)(C)NC(=O)C=C,tert-Butylacrylamide,tert-Butylacrylamide,N-tert-butylprop-2-enamide,29081,DTXSID1040114,CC(C)(C)NC(=O)C=C,"InChI=1S/C7H13NO/c1-5-6(9)8-7(2,3)4/h5H,1H2,2-4H3,(H,8,9)",XFHJDMUEHUHAJW-UHFFFAOYSA-N,?,,128.5,101819
101820,107-61-9,107-61-9,O=S1(=O)CCOCC1,"1,4-Oxathiane, 4,4-dioxide","1,4-Oxathiane, 4,4-dioxide","1,4-oxathiane 4,4-dioxide",29082,DTXSID2059352,O=S1(=O)CCOCC1,InChI=1S/C4H8O3S/c5-8(6)3-1-7-2-4-8/h1-4H2,WWRUZECKUVNAPB-UHFFFAOYSA-N,?,,132.0,101820
101822,107-68-6,107-68-6,CNCCS(O)(=O)=O,2-(Ethylamino)-ethanesulfonic acid,N-Methyltaurine,2-(methylamino)ethanesulfonic acid,29084,DTXSID4025664,CNCCS(O)(=O)=O,"InChI=1S/C3H9NO3S/c1-4-2-3-8(5,6)7/h4H,2-3H2,1H3,(H,5,6,7)",SUZRRICLUFMAQD-UHFFFAOYSA-N,?,,241.5,101822
101823,107-69-7,107-69-7,NC(=O)OCC(Cl)(Cl)Cl,TRICHLOROURETHAN,Trichlorourethan,"2,2,2-Trichloroethyl carbamate",29085,DTXSID20147860,NC(=O)OCC(Cl)(Cl)Cl,"InChI=1S/C3H4Cl3NO2/c4-3(5,6)1-9-2(7)8/h1H2,(H2,7,8)",QPLJYAKLSCXZSF-UHFFFAOYSA-N,?,,64.0,101823
101824,107-81-3,NOCAS_870456,CCCC(C)Br,2-BROMOPENTANE,,,29086,DTXSID90870456,CCCC(C)Br,"InChI=1S/C5H11Br/c1-3-4-5(2)6/h5H,3-4H2,1-2H3",LGAJYTCRJPCZRJ-UHFFFAOYSA-N,?,,-95.5,101824
101827,107-84-6,107-84-6,CC(C)CCCl,"Butane, 1-chloro-3-methyl-","Butane, 1-chloro-3-methyl-",1-Chloro-3-methylbutane,29088,DTXSID2059354,CC(C)CCCl,"InChI=1S/C5H11Cl/c1-5(2)3-4-6/h5H,3-4H2,1-2H3",CZHLPWNZCJEPJB-UHFFFAOYSA-N,?,,-104.4,101827
101828,107-87-9,107-87-9,CCCC(C)=O,2-PENTANONE,2-Pentanone,pentan-2-one,29089,DTXSID0021888,CCCC(C)=O,"InChI=1S/C5H10O/c1-3-4-5(2)6/h3-4H2,1-2H3",XNLICIUVMPYHGG-UHFFFAOYSA-N,?,,-76.9,101828
101830,107-92-6,107-92-6,CCCC(O)=O,BUTYRIC ACID,Butanoic acid,butanoic acid,29091,DTXSID8021515,CCCC(O)=O,"InChI=1S/C4H8O2/c1-2-3-4(5)6/h2-3H2,1H3,(H,5,6)",FERIUCNNQQJTOY-UHFFFAOYSA-N,?,,-5.7,101830
101831,107-93-7|3724-65-0,3724-65-0,CC=CC(O)=O,CROTONIC ACID,2-Butenoic acid,but-2-enoic acid,29092|34069,DTXSID7027544,CC=CC(O)=O,"InChI=1S/C4H6O2/c1-2-3-4(5)6/h2-3H,1H3,(H,5,6)/b3-2+",LDHQCZJRKDOVOX-NSCUHMNNSA-N,?,,72.0,101831
101832,107-94-8,107-94-8,OC(=O)CCCl,3-CHLOROPROPIONIC ACID,3-Chloropropanoic acid,3-chloropropanoic acid,29093,DTXSID5021546,OC(=O)CCCl,"InChI=1S/C3H5ClO2/c4-2-1-3(5)6/h1-2H2,(H,5,6)",QEYMMOKECZBKAC-UHFFFAOYSA-N,?,,41.0,101832
101834,107-98-2,107-98-2,COCC(C)O,1-METHOXY-2-PROPANOL,1-Methoxy-2-propanol,1-methoxypropan-2-ol,29095,DTXSID8024284,COCC(C)O,"InChI=1S/C4H10O2/c1-4(5)3-6-2/h4-5H,3H2,1-2H3",ARXJGSRGQADJSQ-UHFFFAOYSA-N,?,,-95.0,101834
101835,108-01-0,108-01-0,CN(C)CCO,2-DIMETHYLAMINOETHANOL,Dimethylaminoethanol,2-(dimethylamino)ethanol,29096,DTXSID2020505,CN(C)CCO,"InChI=1S/C4H11NO/c1-5(2)3-4-6/h6H,3-4H2,1-2H3",UEEJHVSXFDXPFK-UHFFFAOYSA-N,?,,-59.0,101835
101836,108-03-2,108-03-2,CCC[N+]([O-])=O,1-NITROPROPANE,1-Nitropropane,1-nitropropane,29097,DTXSID1020980,CCC[N+]([O-])=O,"InChI=1S/C3H7NO2/c1-2-3-4(5)6/h2-3H2,1H3",JSZOAYXJRCEYSX-UHFFFAOYSA-N,?,,-108.0,101836
101838,108-08-7,108-08-7,CC(C)CC(C)C,"2,4-DIMETHYLPENTANE","2,4-Dimethylpentane","2,4-Dimethylpentane",29099,DTXSID2059358,CC(C)CC(C)C,"InChI=1S/C7H16/c1-6(2)5-7(3)4/h6-7H,5H2,1-4H3",BZHMBWZPUJHVEE-UHFFFAOYSA-N,?,,-119.9,101838
101839,108-10-1,108-10-1,CC(C)CC(C)=O,4-METHYL-2-PENTANONE,4-Methyl-2-pentanone,4-methylpentan-2-one,29100,DTXSID5021889,CC(C)CC(C)=O,"InChI=1S/C6H12O/c1-5(2)4-6(3)7/h5H,4H2,1-3H3",NTIZESTWPVYFNL-UHFFFAOYSA-N,?,,-84.0,101839
101840,108-11-2,108-11-2,CC(C)CC(C)O,4-METHYL-2-PENTANOL,4-Methyl-2-pentanol,4-methylpentan-2-ol,29101,DTXSID2026781,CC(C)CC(C)O,"InChI=1S/C6H14O/c1-5(2)4-6(3)7/h5-7H,4H2,1-3H3",WVYWICLMDOOCFB-UHFFFAOYSA-N,?,,-90.0,101840
101842,108-18-9,108-18-9,CC(C)NC(C)C,DIISOPROPYLAMINE,Diisopropylamine,N-(propan-2-yl)propan-2-amine,29103,DTXSID9025085,CC(C)NC(C)C,"InChI=1S/C6H15N/c1-5(2)7-6(3)4/h5-7H,1-4H3",UAOMVDZJSHZZME-UHFFFAOYSA-N,?,,-61.0,101842
101843,108-20-3,108-20-3,CC(C)OC(C)C,DI-ISOPROPYL ETHER,Isopropyl ether,dipropan-2-yl ether,29104,DTXSID4021890,CC(C)OC(C)C,"InChI=1S/C6H14O/c1-5(2)7-6(3)4/h5-6H,1-4H3",ZAFNJMIOTHYJRJ-UHFFFAOYSA-N,?,,-86.8,101843
101844,108-21-4,108-21-4,CC(C)OC(C)=O,ISOPROPYL ACETATE,Isopropyl acetate,propan-2-yl acetate,29105,DTXSID2025478,CC(C)OC(C)=O,"InChI=1S/C5H10O2/c1-4(2)7-5(3)6/h4H,1-3H3",JMMWKPVZQRWMSS-UHFFFAOYSA-N,?,,-73.4,101844
101846,108-24-7,108-24-7,CC(=O)OC(C)=O,ACETIC ANHYDRIDE,Acetic anhydride,acetic anhydride,29107,DTXSID0024395,CC(=O)OC(C)=O,InChI=1S/C4H6O3/c1-3(5)7-4(2)6/h1-2H3,WFDIJRYMOXRFFG-UHFFFAOYSA-N,?,,-73.0,101846
101847,108-26-9,108-26-9,CC1CC(=O)NN=1,3-Methyl-5-pyrazolone,3-Methyl-5-pyrazolone,"5-methyl-2,4-dihydro-3H-pyrazol-3-one",29108,DTXSID2051554,CC1CC(=O)NN=1,"InChI=1S/C4H6N2O/c1-3-2-4(7)6-5-3/h2H2,1H3,(H,6,7)",NHLAPJMCARJFOG-UHFFFAOYSA-N,?,,221.0,101847
101848,108-27-0,1558-60-7,C[C@H]1CCC(=O)N1,"2-PYRROLIDINONE, 5-METHYL-","2-Pyrrolidinone, 5-methyl-, (5S)-",C5H9NO,29109,DTXSID40428668,CC1CCC(=O)N1,"InChI=1S/C5H9NO/c1-4-2-3-5(7)6-4/h4H,2-3H2,1H3,(H,6,7)",YVIVRJLWYJGJTJ-UHFFFAOYSA-N,?,,43.0,101848
101850,108-30-5,108-30-5,O=C1CCC(=O)O1,SUCCINIC ANHYDRIDE,Succinic anhydride,"dihydrofuran-2,5-dione",29110,DTXSID7021287,O=C1CCC(=O)O1,InChI=1S/C4H4O3/c5-3-1-2-4(6)7-3/h1-2H2,RINCXYDBBGOEEQ-UHFFFAOYSA-N,?,,119.0,101850
101851,108-31-6,108-31-6,O=C1C=CC(=O)O1,MALEIC ANHYDRIDE,"2,5-Furandione","furan-2,5-dione",29111,DTXSID7024166,O=C1C=CC(=O)O1,InChI=1S/C4H2O3/c5-3-1-2-4(6)7-3/h1-2H,FPYJFEHAWHCUMM-UHFFFAOYSA-N,?,,52.8,101851
101852,108-32-7,108-32-7,CC1COC(=O)O1,PROPYLENE CARBONATE,Propylene carbonate,"4-methyl-1,3-dioxolan-2-one",29112,DTXSID2026789,CC1COC(=O)O1,"InChI=1S/C4H6O3/c1-3-2-6-4(5)7-3/h3H,2H2,1H3",RUOJZAUFBMNUDX-UHFFFAOYSA-N,?,,-48.8,101852
101854,108-36-1,108-36-1,Brc1cc(Br)ccc1,M-DIBROMOBENZENE,"1,3-Dibromobenzene","1,3-dibromobenzene",29114,DTXSID7051555,Brc1cc(Br)ccc1,InChI=1S/C6H4Br2/c7-5-2-1-3-6(8)4-5/h1-4H,JSRLURSZEMLAFO-UHFFFAOYSA-N,?,,-7.0,101854