ChemID,source_casrn,CAS,SMILES,NAME,preferred_name,iupac,MPID,dsstox_substance_id,Canonical_QSARr,InChI_Code_QSARr,InChI Key_QSARr,Salt_Solvent,BP,ID
103069,630-02-4,630-02-4,CCCCCCCCCCCCCCCCCCCCCCCCCCCC,OCTACOSANE,Octacosane,Octacosane,22049,DTXSID6058639,CCCCCCCCCCCCCCCCCCCCCCCCCCCC,"InChI=1S/C28H58/c1-3-5-7-9-11-13-15-17-19-21-23-25-27-28-26-24-22-20-18-16-14-12-10-8-6-4-2/h3-28H2,1-2H3",ZYURHZPYMFLWSH-UHFFFAOYSA-N,?,431.6,103069
103073,630-13-7,630-13-7,CC(C)(I)I,"2,2-diiodopropane","Propane, 2,2-diiodo-",C3H6I2,22053,DTXSID90467385,CC(C)(I)I,"InChI=1S/C3H6I2/c1-3(2,4)5/h1-2H3",AZUCPFMKPGFGTB-UHFFFAOYSA-N,?,173.0,103073
103077,630-20-6,630-20-6,ClCC(Cl)(Cl)Cl,"1,1,1,2-TETRACHLOROETHANE","1,1,1,2-Tetrachloroethane","1,1,1,2-tetrachloroethane",22057,DTXSID2021317,ClCC(Cl)(Cl)Cl,"InChI=1S/C2H2Cl4/c3-1-2(4,5)6/h1H2",QVLAWKAXOMEXPM-UHFFFAOYSA-N,?,130.5,103077
103081,632-05-3,NOCAS_870736,CC(Br)C(Br)CBr,"Butane, 1,2,3-tribromo-",,,22061,DTXSID10870736,CC(Br)C(Br)CBr,"InChI=1S/C4H7Br3/c1-3(6)4(7)2-5/h3-4H,2H2,1H3",HKTNRDJXZCCMGH-UHFFFAOYSA-N,?,220.0,103081
103085,632-22-4,632-22-4,CN(C)C(=O)N(C)C,TETRAMETHYLUREA,Tetramethylurea,"1,1,3,3-Tetramethylurea",22065,DTXSID1060893,CN(C)C(=O)N(C)C,InChI=1S/C5H12N2O/c1-6(2)5(8)7(3)4/h1-4H3,AVQQQNCBBIEMEU-UHFFFAOYSA-N,?,176.5,103085
103089,634-47-9,634-47-9,Cc1cc(Cl)[n]c2ccccc21,2-Chloro-4-methylquinoline,2-Chloro-4-methylquinoline,2-Chloro-4-methylquinoline,22069,DTXSID00212808,Cc1cc(Cl)[n]c2ccccc21,"InChI=1S/C10H8ClN/c1-7-6-10(11)12-9-5-3-2-4-8(7)9/h2-6H,1H3",PFEIMKNQOIFKSW-UHFFFAOYSA-N,?,296.0,103089
103093,634-93-5,634-93-5,Nc1c(Cl)cc(Cl)cc1Cl,"2,4,6-TRICHLOROANILINE","2,4,6-Trichloroaniline","2,4,6-trichloroaniline",22073,DTXSID6021379,Nc1c(Cl)cc(Cl)cc1Cl,"InChI=1S/C6H4Cl3N/c7-3-1-4(8)6(10)5(9)2-3/h1-2H,10H2",NATVSFWWYVJTAZ-UHFFFAOYSA-N,?,262.0,103093
103097,635-90-5,635-90-5,c1ccccc1-[n]1cccc1,"PYRROLE, 1-PHENYL-",1-Phenylpyrrole,1-Phenylpyrrole,22077,DTXSID60212905,c1ccccc1-[n]1cccc1,InChI=1S/C10H9N/c1-2-6-10(7-3-1)11-8-4-5-9-11/h1-9H,GEZGAZKEOUKLBR-UHFFFAOYSA-N,?,234.0,103097
103101,636-41-9,636-41-9,Cc1ccc[nH]1,2-Methylpyrrole,2-Methylpyrrole,2-Methyl-1H-pyrrole,22081,DTXSID70212976,Cc1ccc[nH]1,"InChI=1S/C5H7N/c1-5-3-2-4-6-5/h2-4,6H,1H3",TVCXVUHHCUYLGX-UHFFFAOYSA-N,?,147.0,103101
103105,636-98-6,636-98-6,[O-][N+](=O)c1ccc(I)cc1,"Benzene, 1-iodo-4-nitro-","Benzene, 1-iodo-4-nitro-",1-Iodo-4-nitrobenzene,22085,DTXSID7060914,[O-][N+](=O)c1ccc(I)cc1,InChI=1S/C6H4INO2/c7-5-1-3-6(4-2-5)8(9)10/h1-4H,SCCCFNJTCDSLCY-UHFFFAOYSA-N,?,288.0,103105
103109,637-64-9,NOCAS_862335,CC(=O)OCC1CCCO1,"2-Furanmethanol, tetrahydro-, acetate",,,22089,DTXSID30862335,CC(=O)OCC1CCCO1,"InChI=1S/C7H12O3/c1-6(8)10-5-7-3-2-4-9-7/h7H,2-5H2,1H3",AAQDYYFAFXGBFZ-UHFFFAOYSA-N,?,193.0,103109
103113,637-87-6,637-87-6,Clc1ccc(I)cc1,4-CHLOROIODOBENZENE,"Benzene, 1-chloro-4-iodo-",1-Chloro-4-iodobenzene,22093,DTXSID1060928,Clc1ccc(I)cc1,InChI=1S/C6H4ClI/c7-5-1-3-6(8)4-2-5/h1-4H,GWQSENYKCGJTRI-UHFFFAOYSA-N,?,227.0,103113
103117,638-02-8,638-02-8,Cc1ccc(C)[s]1,"2,5-DIMETHYLTHIOPHENE","2,5-Dimethylthiophene","2,5-Dimethylthiophene",22097,DTXSID2074295,Cc1ccc(C)[s]1,"InChI=1S/C6H8S/c1-5-3-4-6(2)7-5/h3-4H,1-2H3",GWQOOADXMVQEFT-UHFFFAOYSA-N,?,136.5,103117
103122,638-25-5,638-25-5,CCCCCCCC(=O)OCCCCC,"Octanoic acid, pentyl ester","Octanoic acid, pentyl ester",Pentyl octanoate,22102,DTXSID5060932,CCCCCCCC(=O)OCCCCC,"InChI=1S/C13H26O2/c1-3-5-7-8-9-11-13(14)15-12-10-6-4-2/h3-12H2,1-2H3",GJWGZSBNFSBUPX-UHFFFAOYSA-N,?,260.2,103122
103127,638-49-3,638-49-3,CCCCCOC=O,"Formic acid, pentyl ester",Pentyl formate,pentyl formate,22106,DTXSID2047698,CCCCCOC=O,"InChI=1S/C6H12O2/c1-2-3-4-5-8-6-7/h6H,2-5H2,1H3",DIQMPQMYFZXDAX-UHFFFAOYSA-N,?,130.4,103127
103131,638-68-6,638-68-6,CCCCCCCCCCCCCCCCCCCCCCCCCCCCCC,TRIACONTANE,Triacontane,TRIACONTANE,22110,DTXSID0060935,CCCCCCCCCCCCCCCCCCCCCCCCCCCCCC,"InChI=1S/C30H62/c1-3-5-7-9-11-13-15-17-19-21-23-25-27-29-30-28-26-24-22-20-18-16-14-12-10-8-6-4-2/h3-30H2,1-2H3",JXTPJDDICSTXJX-UHFFFAOYSA-N,?,449.7,103131
103135,643-58-3,28652-72-4,Cc1ccccc1-c1ccccc1,2-METHYLBIPHENYL,"Methyl biphenyl, mixed isomers",2-methylbiphenyl,22114,DTXSID0025575,Cc1ccccc1-c1ccccc1,"InChI=1S/C13H12/c1-11-7-5-6-10-13(11)12-8-3-2-4-9-12/h2-10H,1H3",ALLIZEAXNXSFGD-UHFFFAOYSA-N,?,255.5,103135
103139,644-21-3,644-21-3,CCN(N)c1ccccc1,"HYDRAZINE, 1-ETHYL-1-PHENYL-","Hydrazine, 1-ethyl-1-phenyl-",1-Ethyl-1-phenylhydrazine,22118,DTXSID80214648,CCN(N)c1ccccc1,"InChI=1S/C8H12N2/c1-2-10(9)8-6-4-3-5-7-8/h3-7H,2,9H2,1H3",NQSIARGGPGHMCG-UHFFFAOYSA-N,?,237.0,103139
103143,645-00-1,645-00-1,[O-][N+](=O)c1cccc(I)c1,3-IODONITROBENZENE,1-Iodo-3-nitrobenzene,1-iodo-3-nitrobenzene,22122,DTXSID5025449,[O-][N+](=O)c1cccc(I)c1,InChI=1S/C6H4INO2/c7-5-2-1-3-6(4-5)8(9)10/h1-4H,CBYAZOKPJYBCHE-UHFFFAOYSA-N,?,280.0,103143
103147,645-41-0,645-41-0,CC(C)CCN(CCC(C)C)CCC(C)C,"1-Butanamine, 3-methyl-N,N-bis(3-methylbutyl)-","1-Butanamine, 3-methyl-N,N-bis(3-methylbutyl)-","3-methyl-N,N-bis(3-methylbutyl)butan-1-amine",22126,DTXSID9060946,CC(C)CCN(CCC(C)C)CCC(C)C,"InChI=1S/C15H33N/c1-13(2)7-10-16(11-8-14(3)4)12-9-15(5)6/h13-15H,7-12H2,1-6H3",QKVUSSUOYHTOFQ-UHFFFAOYSA-N,?,235.0,103147
103153,646-05-9,646-05-9,CC#CC=C,1-PENTEN-3-YNE,1-Penten-3-yne,pent-1-en-3-yne,22131,DTXSID00214847,CC#CC=C,"InChI=1S/C5H6/c1-3-5-4-2/h3H,1H2,2H3",FILUFGAZMJGNEN-UHFFFAOYSA-N,?,59.5,103153
103157,646-19-5,646-19-5,NCCCCCCCN,"1,7-Diaminoheptane","1,7-Diaminoheptane","heptane-1,7-diamine",22135,DTXSID60214848,NCCCCCCCN,InChI=1S/C7H18N2/c8-6-4-2-1-3-5-7-9/h1-9H2,PWSKHLMYTZNYKO-UHFFFAOYSA-N,?,224.0,103157
103161,653-37-2,653-37-2,O=Cc1c(F)c(F)c(F)c(F)c1F,PENTAFLUOR-BENZALDEHYD,Pentafluorobenzaldehyde,pentafluorobenzaldehyde,22139,DTXSID4022101,O=Cc1c(F)c(F)c(F)c(F)c1F,InChI=1S/C7HF5O/c8-3-2(1-13)4(9)6(11)7(12)5(3)10/h1H,QJXCFMJTJYCLFG-UHFFFAOYSA-N,?,167.0,103161
103166,661-97-2,NOCAS_862360,FC(F)(F)C(F)(Cl)C(F)(F)Cl,"Propane, 1,2-dichloro-1,1,2,3,3,3-hexafluoro-",,,22143,DTXSID80862360,FC(F)(F)C(F)(Cl)C(F)(F)Cl,"InChI=1S/C3Cl2F6/c4-1(6,2(5,7)8)3(9,10)11",JSEUKVSKOHVLOV-UHFFFAOYSA-N,?,34.1,103166
103171,673-32-5,673-32-5,CC#Cc1ccccc1,"BENZENE, 1-PROPYNYL-",1-Phenyl-1-propyne,Prop-1-ynylbenzene,22148,DTXSID10217667,CC#Cc1ccccc1,"InChI=1S/C9H8/c1-2-6-9-7-4-3-5-8-9/h3-5,7-8H,1H3",GHUURDQYRGVEHX-UHFFFAOYSA-N,?,183.0,103171
103175,675-14-9,675-14-9,Fc1[n]c(F)[n]c(F)[n]1,"2,4,6-Trifluoro-1,3,5-triazine",Cyanuric fluoride,"2,4,6-Trifluoro-1,3,5-triazine",22152,DTXSID6060975,Fc1[n]c(F)[n]c(F)[n]1,InChI=1S/C3F3N3/c4-1-7-2(5)9-3(6)8-1,VMKJWLXVLHBJNK-UHFFFAOYSA-N,?,72.8,103175
103179,677-68-9,NOCAS_865482,FC(F)(Cl)C(Cl)(Cl)C(F)(F)Cl,"1,2,2,3-tetrachloro-1,1,3,3-tetrafluoropropane",,,22156,DTXSID30865482,FC(F)(Cl)C(Cl)(Cl)C(F)(F)Cl,"InChI=1S/C3Cl4F4/c4-1(5,2(6,8)9)3(7,10)11",LVULLLDMOZXHRF-UHFFFAOYSA-N,?,112.0,103179
103183,679-86-7,679-86-7,FCC(F)(F)C(F)F,HFC-245 (pentafluoropropane),HFC-245ca,"1,1,2,2,3-Pentafluoropropane",22160,DTXSID3073925,FCC(F)(F)C(F)F,"InChI=1S/C3H3F5/c4-1-3(7,8)2(5)6/h2H,1H2",AWTOFSDLNREIFS-UHFFFAOYSA-N,?,26.0,103183
103187,682-01-9,682-01-9,CCCO[Si](OCCC)(OCCC)OCCC,Tetrapropoxy silane,Tetrapropyl orthosilicate,tetrapropyl orthosilicate,22164,DTXSID9042382,CCCO[Si](OCCC)(OCCC)OCCC,"InChI=1S/C12H28O4Si/c1-5-9-13-17(14-10-6-2,15-11-7-3)16-12-8-4/h5-12H2,1-4H3",ZQZCOBSUOFHDEE-UHFFFAOYSA-N,?,226.0,103187
103191,683-72-7,683-72-7,NC(=O)C(Cl)Cl,"ACETAMIDE, 2,2-DICHLORO-","2,2-Dichloroacetamide","2,2-dichloroacetamide",22168,DTXSID8021561,NC(=O)C(Cl)Cl,"InChI=1S/C2H3Cl2NO/c3-1(4)2(5)6/h1H,(H2,5,6)",WCGGWVOVFQNRRS-UHFFFAOYSA-N,?,234.0,103191
103195,685-91-6,685-91-6,CC(=O)N(CC)CC,DIETHYLACETAMIDE,Diethylacetamide,"N,N-diethylacetamide",22172,DTXSID9020459,CC(=O)N(CC)CC,"InChI=1S/C6H13NO/c1-4-7(5-2)6(3)8/h4-5H2,1-3H3",AJFDBNQQDYLMJN-UHFFFAOYSA-N,?,185.5,103195
103199,689-97-4,689-97-4,C=CC#C,1-BUTEN-3-YNE,1-Buten-3-yne,but-1-en-3-yne,22176,DTXSID4029199,C=CC#C,"InChI=1S/C4H4/c1-3-4-2/h1,4H,2H2",WFYPICNXBKQZGB-UHFFFAOYSA-N,?,5.1,103199
103205,691-37-2,691-37-2,CC(C)CC=C,4-METHYL-1-PENTENE,4-Methyl-1-pentene,4-Methylpent-1-ene,22181,DTXSID3061001,CC(C)CC=C,"InChI=1S/C6H12/c1-4-5-6(2)3/h4,6H,1,5H2,2-3H3",WSSSPWUEQFSQQG-UHFFFAOYSA-N,?,53.9,103205
103210,692-50-2,692-50-2,FC(F)(F)C#CC(F)(F)F,"2-Butyne, 1,1,1,4,4,4-hexafluoro-","2-Butyne, 1,1,1,4,4,4-hexafluoro-",,22185,DTXSID3061003,FC(F)(F)C#CC(F)(F)F,"InChI=1S/C4F6/c5-3(6,7)1-2-4(8,9)10",WBCLXFIDEDJGCC-UHFFFAOYSA-N,?,-24.6,103210
103214,693-13-0,693-13-0,CC(C)N=C=NC(C)C,"N,N'-METHANETETRAYLBIS-2-PROPANAMINE",Diisopropylcarbodiimide,"N,N'-dipropan-2-ylcarbodiimide",22189,DTXSID4025086,CC(C)N=C=NC(C)C,"InChI=1S/C7H14N2/c1-6(2)8-5-9-7(3)4/h6-7H,1-4H3",BDNKZNFMNDZQMI-UHFFFAOYSA-N,?,147.0,103214
103218,693-61-8|821-96-5,693-61-8|821-96-5,C/C=C/CCCCCCCC,"2-UNDECENE, (E)-, 2-UNDECENE, (Z)-",,,22193|22365,DTXSID10876612|DTXSID50876611,CC=CCCCCCCCC,"InChI=1S/C11H22/c1-3-5-7-9-11-10-8-6-4-2/h3,5H,4,6-11H2,1-2H3/b5-3+",JOHIXGUTSXXADV-HWKANZROSA-N,?,194.3,103218
103222,693-93-6,693-93-6,Cc1coc[n]1,4-METHYLOXAZOL,4-Methyloxazole,"4-methyl-1,3-oxazole",22197,DTXSID9022106,Cc1coc[n]1,"InChI=1S/C4H5NO/c1-4-2-6-3-5-4/h2-3H,1H3",PUMREIFKTMLCAF-UHFFFAOYSA-N,?,88.0,103222
103227,694-35-9,NOCAS_870756,CCC1CCC=C1,"CYCLOPENTENE, 3-ETHYL-",,,22201,DTXSID10870756,CCC1CCC=C1,"InChI=1S/C7H12/c1-2-7-5-3-4-6-7/h3,5,7H,2,4,6H2,1H3",HICUGGYRYZOXJI-UHFFFAOYSA-N,?,97.8,103227
103232,695-06-7,695-06-7,CCC1CCC(=O)O1,"2(3H)-Furanone, 5-ethyldihydro-",gamma-Caprolactone,5-ethyldihydrofuran-2(3H)-one,22205,DTXSID8041298,CCC1CCC(=O)O1,"InChI=1S/C6H10O2/c1-2-5-3-4-6(7)8-5/h5H,2-4H2,1H3",JBFHTYHTHYHCDJ-UHFFFAOYSA-N,?,215.5,103232
103236,696-29-7,696-29-7,CC(C)C1CCCCC1,ISOPROPYLCYCLOHEXANE,"Cyclohexane, (1-methylethyl)-",propan-2-ylcyclohexane,22209,DTXSID2061012,CC(C)C1CCCCC1,"InChI=1S/C9H18/c1-8(2)9-6-4-3-5-7-9/h8-9H,3-7H2,1-2H3",GWESVXSMPKAFAS-UHFFFAOYSA-N,?,154.8,103236
103240,696-62-8,696-62-8,COc1ccc(I)cc1,"Benzene, 1-iodo-4-methoxy-","Benzene, 1-iodo-4-methoxy-",1-Iodo-4-methoxybenzene,22213,DTXSID7061015,COc1ccc(I)cc1,"InChI=1S/C7H7IO/c1-9-7-4-2-6(8)3-5-7/h2-5H,1H3",SYSZENVIJHPFNL-UHFFFAOYSA-N,?,238.0,103240
103244,697-82-5,697-82-5,Cc1cc(O)c(C)c(C)c1,"2,3,5-TRIMETHYLPHENOL","2,3,5-Trimethylphenol","2,3,5-trimethylphenol",22217,DTXSID3047184,Cc1cc(O)c(C)c(C)c1,"InChI=1S/C9H12O/c1-6-4-7(2)8(3)9(10)5-6/h4-5,10H,1-3H3",OGRAOKJKVGDSFR-UHFFFAOYSA-N,?,230.5,103244
103248,698-27-1,698-27-1,Cc1ccc(C=O)c(O)c1,2-Hydroxy-4-methylbenzaldehyde,"Benzaldehyde, 2-hydroxy-4-methyl-",2-Hydroxy-4-methylbenzaldehyde,22221,DTXSID2074407,Cc1ccc(C=O)c(O)c1,"InChI=1S/C8H8O2/c1-6-2-3-7(5-9)8(10)4-6/h2-5,10H,1H3",JODRRPJMQDFCBJ-UHFFFAOYSA-N,?,223.0,103248
103252,699-02-5,699-02-5,Cc1ccc(CCO)cc1,"Benzeneethanol, 4-methyl-","Benzeneethanol, 4-methyl-",2-(4-Methylphenyl)ethanol,22225,DTXSID6061020,Cc1ccc(CCO)cc1,"InChI=1S/C9H12O/c1-8-2-4-9(5-3-8)6-7-10/h2-5,10H,6-7H2,1H3",DAVFJRVIVZOKKS-UHFFFAOYSA-N,?,244.5,103252
103256,700-12-9,700-12-9,Cc1c(C)c(C)cc(C)c1C,PENTAMETHYLBENZENE,"Benzene, pentamethyl-","1,2,3,4,5-Pentamethylbenzene",22229,DTXSID6061024,Cc1c(C)c(C)cc(C)c1C,"InChI=1S/C11H16/c1-7-6-8(2)10(4)11(5)9(7)3/h6H,1-5H3",BEZDDPMMPIDMGJ-UHFFFAOYSA-N,?,232.0,103256
103260,701-97-3,701-97-3,OC(=O)CCC1CCCCC1,Cyclohexanepropanoic acid,Cyclohexanepropionic acid,3-Cyclohexylpropanoic acid,22233,DTXSID6061028,OC(=O)CCC1CCCCC1,"InChI=1S/C9H16O2/c10-9(11)7-6-8-4-2-1-3-5-8/h8H,1-7H2,(H,10,11)",HJZLEGIHUQOJBA-UHFFFAOYSA-N,?,276.5,103260
103264,704-38-1,704-38-1,O=C(c1ccc[s]1)c1ccc[s]1,Di-thiophen-2-yl-methanone,"Methanone, di-2-thienyl-",di(thiophen-2-yl)methanone,22237,DTXSID50220670,O=C(c1ccc[s]1)c1ccc[s]1,InChI=1S/C9H6OS2/c10-9(7-3-1-5-11-7)8-4-2-6-12-8/h1-6H,GUTQMBQKTSGBPQ-UHFFFAOYSA-N,?,326.0,103264
103268,712-48-1,712-48-1,Cl[As](c1ccccc1)c1ccccc1,DIPHENYLCHLOROARSINE,Diphenylchlorarsine,C12H10AsCl,22241,DTXSID30858733,Cl[As](c1ccccc1)c1ccccc1,InChI=1S/C12H10AsCl/c14-13(11-7-3-1-4-8-11)12-9-5-2-6-10-12/h1-10H,YHHKGKCOLGRKKB-UHFFFAOYSA-N,?,337.0,103268
103273,719-79-9,719-79-9,CCCC(c1ccccc1)c1ccccc1,"Benzene, 1,1'-butylidenebis-","1,1-Diphenylbutane",1-phenylbutylbenzene,22245,DTXSID3061053,CCCC(c1ccccc1)c1ccccc1,"InChI=1S/C16H18/c1-2-9-16(14-10-5-3-6-11-14)15-12-7-4-8-13-15/h3-8,10-13,16H,2,9H2,1H3",SZFDQMKAGLCYPA-UHFFFAOYSA-N,?,287.0,103273
103278,754-05-2,754-05-2,C[Si](C)(C)C=C,"SILANE, ETHENYLTRIMETHYL-","Silane, ethenyltrimethyl-",ethenyl-trimethylsilane,22249,DTXSID1061071,C[Si](C)(C)C=C,"InChI=1S/C5H12Si/c1-5-6(2,3)4/h5H,1H2,2-4H3",GCSJLQSCSDMKTP-UHFFFAOYSA-N,?,55.0,103278
103282,756-79-6,756-79-6,CP(=O)(OC)OC,"Phosphonic acid, methyl-, dimethyl ester",Dimethyl methylphosphonate,dimethyl methylphosphonate,22253,DTXSID0020494,CP(=O)(OC)OC,"InChI=1S/C3H9O3P/c1-5-7(3,4)6-2/h1-3H3",VONWDASPFIQPDY-UHFFFAOYSA-N,?,181.0,103282
103286,760-20-3,NOCAS_870762,CCC(C)C=C,3-METHYL-1-PENTENE,,,22257,DTXSID20870762,CCC(C)C=C,"InChI=1S/C6H12/c1-4-6(3)5-2/h4,6H,1,5H2,2-3H3",LDTAOIUHUHHCMU-UHFFFAOYSA-N,?,54.2,103286
103290,762-04-9,762-04-9,CCOP(O)OCC,DIETHYL PHOSPHITE,Diethyl phosphite,diethyl hydrogen phosphite,22261,DTXSID9041861,CCOP(O)OCC,"InChI=1S/C4H11O3P/c1-3-6-8(5)7-4-2/h5H,3-4H2,1-2H3",SULWMEGSVQCTSK-UHFFFAOYSA-N,?,138.0,103290
103294,762-63-0,26232-98-4,CC=CC(C)(C)C,"2-PENTENE, 4,4-DIMETHYL-, (Z)-","2-Pentene, 4,4-dimethyl-",?,22265,DTXSID5075078,CC=CC(C)(C)C,"InChI=1S/C7H14/c1-5-6-7(2,3)4/h5-6H,1-4H3/b6-5+",BIDIHFPLDRSAMB-AATRIKPKSA-N,?,80.4,103294
103298,763-30-4,763-30-4,CC(=C)CC=C,"2-METHYL-1,4-PENTADIENE","1,4-Pentadiene, 2-methyl-","2-Methylpenta-1,4-diene",22269,DTXSID80227172,CC(=C)CC=C,"InChI=1S/C6H10/c1-4-5-6(2)3/h4H,1-2,5H2,3H3",DRWYRROCDFQZQF-UHFFFAOYSA-N,?,56.0,103298
103302,764-13-6,764-13-6,CC(C)=CC=C(C)C,"2,5-DIMETHYL-2,4-HEXADIENE","2,5-Dimethyl-2,4-hexadiene","2,5-dimethylhexa-2,4-diene",22273,DTXSID3022116,CC(C)=CC=C(C)C,"InChI=1S/C8H14/c1-7(2)5-6-8(3)4/h5-6H,1-4H3",DZPCYXCBXGQBRN-UHFFFAOYSA-N,?,134.5,103302
103307,764-48-7,764-48-7,C=COCCO,"ETHANOL, 2-(ETHENYLOXY)-",Ethylene glycol monovinyl ether,2-ethenoxyethanol,22278,DTXSID4075457,C=COCCO,"InChI=1S/C4H8O2/c1-2-6-4-3-5/h2,5H,1,3-4H2",VUIWJRYTWUGOOF-UHFFFAOYSA-N,?,141.6,103307
103311,764-96-5|764-97-6,764-97-6,CCCCC/C=C/CCCC,"5-UNDECENE, (Z)-, 5-UNDECENE, (E)-","Alkenes, C10-12, C11-rich",(5E)-undec-5-ene,22282|22283,DTXSID00874001,CCCCCC=CCCCC,"InChI=1S/C11H22/c1-3-5-7-9-11-10-8-6-4-2/h9,11H,3-8,10H2,1-2H3/b11-9+",NGCRXXLKJAAUQQ-PKNBQFBNSA-N,?,192.15,103311
103316,765-13-9,765-13-9,CCCCCCCCCCCCCC#C,1-Pentadecyne,1-Pentadecyne,pentadec-1-yne,22287,DTXSID9061097,CCCCCCCCCCCCCC#C,"InChI=1S/C15H28/c1-3-5-7-9-11-13-15-14-12-10-8-6-4-2/h1H,4-15H2,2H3",DONJGKADZJEXRJ-UHFFFAOYSA-N,?,268.0,103316
103321,765-43-5,765-43-5,CC(=O)C1CC1,CYCLOPROPYL METHYL KETONE,Cyclopropyl methyl ketone,1-cyclopropylethanone,22291,DTXSID9074854,CC(=O)C1CC1,"InChI=1S/C5H8O/c1-4(6)5-2-3-5/h5H,2-3H2,1H3",HVCFCNAITDHQFX-UHFFFAOYSA-N,?,111.3,103321
103325,766-00-7,766-00-7,OCCC1CCCC1,2-Hydroxyethylcyclopentane,Cyclopentaneethanol,,22295,DTXSID80227399,OCCC1CCCC1,"InChI=1S/C7H14O/c8-6-5-7-3-1-2-4-7/h7-8H,1-6H2",JEXQWCBPEWHFKC-UHFFFAOYSA-N,?,183.0,103325
103331,766-51-8,766-51-8,COc1ccccc1Cl,O-CHLOROANISOLE,o-Chloroanisole,1-Chloro-2-methoxybenzene,22299,DTXSID1061104,COc1ccccc1Cl,"InChI=1S/C7H7ClO/c1-9-7-5-3-2-4-6(7)8/h2-5H,1H3",QGRPVMLBTFGQDQ-UHFFFAOYSA-N,?,198.5,103331
103336,766-97-2,766-97-2,Cc1ccc(cc1)C#C,"Benzene, 1-ethynyl-4-methyl- (9CI)","Benzene, 1-ethynyl-4-methyl- (9CI)",1-Ethynyl-4-methylbenzene,22303,DTXSID30227420,Cc1ccc(cc1)C#C,"InChI=1S/C9H8/c1-3-9-6-4-8(2)5-7-9/h1,4-7H,2H3",KSZVOXHGCKKOLL-UHFFFAOYSA-N,?,169.0,103336
103340,767-58-8,NOCAS_862406,CC1CCc2ccccc21,"1H-INDENE, 2,3-DIHYDRO-1-METHYL-",,,22307,DTXSID80862406,CC1CCc2ccccc21,"InChI=1S/C10H12/c1-8-6-7-9-4-2-3-5-10(8)9/h2-5,8H,6-7H2,1H3",FIPKSKMDTAQBDJ-UHFFFAOYSA-N,?,190.6,103340
103345,768-32-1,768-32-1,C[Si](C)(C)c1ccccc1,"SILANE, TRIMETHYL PHENYL","Silane, trimethylphenyl-",trimethyl-phenylsilane,22312,DTXSID6061109,C[Si](C)(C)c1ccccc1,"InChI=1S/C9H14Si/c1-10(2,3)9-7-5-4-6-8-9/h4-8H,1-3H3",KXFSUVJPEQYUGN-UHFFFAOYSA-N,?,169.5,103345
103350,769-06-2,769-06-2,CN(C)c1c(C)cccc1C,"Benzenamine, N,N,2,6-tetramethyl-","Benzenamine, N,N,2,6-tetramethyl-","N,N,2,6-Tetramethylaniline",22316,DTXSID5061114,CN(C)c1c(C)cccc1C,"InChI=1S/C10H15N/c1-8-6-5-7-9(2)10(8)11(3)4/h5-7H,1-4H3",SCVRZFQSPISLTD-UHFFFAOYSA-N,?,196.0,103350
103354,769-92-6,769-92-6,CC(C)(C)c1ccc(N)cc1,"BENZENAMINE, 4-(1,1-DIMETHYLETHYL)",4-tert-Butylaniline,4-tert-butylaniline,22320,DTXSID0048181,CC(C)(C)c1ccc(N)cc1,"InChI=1S/C10H15N/c1-10(2,3)8-4-6-9(11)7-5-8/h4-7H,11H2,1-3H3",WRDWWAVNELMWAM-UHFFFAOYSA-N,?,241.0,103354
103358,771-56-2,771-56-2,Cc1c(F)c(F)c(F)c(F)c1F,N-METHYLPENTAFLUOROBENZENE,Pentafluoromethylbenzene,"1,2,3,4,5-pentafluoro-6-methylbenzene",22324,DTXSID0061119,Cc1c(F)c(F)c(F)c(F)c1F,InChI=1S/C7H3F5/c1-2-3(8)5(10)7(12)6(11)4(2)9/h1H3,SXPRVMIZFRCAGC-UHFFFAOYSA-N,?,117.5,103358
103362,771-98-2,NOCAS_870771,C1CCCC=C1c1ccccc1,1-Phenylcyclohexene,,,22328,DTXSID10870771,C1CCCC=C1c1ccccc1,"InChI=1S/C12H14/c1-3-7-11(8-4-1)12-9-5-2-6-10-12/h1,3-4,7-9H,2,5-6,10H2",WCMSFBRREKZZFL-UHFFFAOYSA-N,?,252.0,103362
103366,773-82-0,773-82-0,N#Cc1c(F)c(F)c(F)c(F)c1F,"Benzonitrile, pentafluoro-",Pentafluorobenzonitrile,"2,3,4,5,6-pentafluorobenzonitrile",22332,DTXSID9061126,N#Cc1c(F)c(F)c(F)c(F)c1F,InChI=1S/C7F5N/c8-3-2(1-13)4(9)6(11)7(12)5(3)10,YXWJGZQOGXGSSC-UHFFFAOYSA-N,?,162.0,103366
103372,781-35-1,781-35-1,CC(=O)C(c1ccccc1)c1ccccc1,"2-Propanone, 1,1-diphenyl-","2-Propanone, 1,1-diphenyl-","1,1-di(phenyl)propan-2-one",22336,DTXSID8061137,CC(=O)C(c1ccccc1)c1ccccc1,"InChI=1S/C15H14O/c1-12(16)15(13-8-4-2-5-9-13)14-10-6-3-7-11-14/h2-11,15H,1H3",DBNWBEGCONIRGQ-UHFFFAOYSA-N,?,307.0,103372
103376,812-03-3,NOCAS_870776,CC(Cl)C(Cl)(Cl)Cl,"Propane, 1,1,1,2-tetrachloro-",,,22340,DTXSID10870776,CC(Cl)C(Cl)(Cl)Cl,"InChI=1S/C3H4Cl4/c1-2(4)3(5,6)7/h2H,1H3",FEKGWIHDBVDVSM-UHFFFAOYSA-N,?,152.5,103376
103380,814-67-5,NOCAS_862421,CC(S)CS,"1,2-Propanedithiol",,,22344,DTXSID80862421,CC(S)CS,"InChI=1S/C3H8S2/c1-3(5)2-4/h3-5H,2H2,1H3",YGKHJWTVMIMEPQ-UHFFFAOYSA-N,?,152.0,103380
103384,815-24-7,815-24-7,CC(C)(C)C(=O)C(C)(C)C,"3-PENTANONE, 2,2,4,4-TETRAMETHYL-",Di-tert-butyl ketone,"2,2,4,4-Tetramethylpentan-3-one",22348,DTXSID1061154,CC(C)(C)C(=O)C(C)(C)C,"InChI=1S/C9H18O/c1-8(2,3)7(10)9(4,5)6/h1-6H3",UIQGEWJEWJMQSL-UHFFFAOYSA-N,?,152.0,103384
103388,817-95-8,817-95-8,CCOCC(=O)OCC,"Acetic acid, ethoxy-, ethyl ester","Acetic acid, ethoxy-, ethyl ester",ethyl 2-ethoxyacetate,22352,DTXSID0061161,CCOCC(=O)OCC,"InChI=1S/C6H12O3/c1-3-8-5-6(7)9-4-2/h3-5H2,1-2H3",CKSRFHWWBKRUKA-UHFFFAOYSA-N,?,158.0,103388
103392,818-92-8,818-92-8,C=CCF,"1-PROPENE, 3-FLUORO-",3-Fluoropropene,3-fluoroprop-1-ene,22356,DTXSID20231374,C=CCF,"InChI=1S/C3H5F/c1-2-3-4/h2H,1,3H2",QCMKXHXKNIOBBC-UHFFFAOYSA-N,?,-3.0,103392
103396,821-09-0,821-09-0,C=CCCCO,4-PENTEN-1-OL,Pent-4-en-1-ol,Pent-4-en-1-ol,22360,DTXSID30231562,C=CCCCO,"InChI=1S/C5H10O/c1-2-3-4-5-6/h2,6H,1,3-5H2",LQAVWYMTUMSFBE-UHFFFAOYSA-N,?,141.0,103396
103400,821-95-4,821-95-4,CCCCCCCCCC=C,1-UNDECENE,1-Undecene,undec-1-ene,22364,DTXSID5061168,CCCCCCCCCC=C,"InChI=1S/C11H22/c1-3-5-7-9-11-10-8-6-4-2/h3H,1,4-11H2,2H3",DCTOHCCUXLBQMS-UHFFFAOYSA-N,?,192.7,103400
103406,822-36-6,822-36-6,Cc1c[nH]c[n]1,"1H-IMIDAZOLE, 4-METHYL-",4-Methylimidazole,4-methyl-1H-imidazole,22370,DTXSID9025617,Cc1c[nH]c[n]1,"InChI=1S/C4H6N2/c1-4-2-5-3-6-4/h2-3H,1H3,(H,5,6)",XLSZMDLNRCVEIJ-UHFFFAOYSA-N,?,263.0,103406
103411,822-84-4,822-84-4,[O-][N+](=O)c1c[s]cc1,3-NITROTHIOPHENE,"Thiophene, 3-nitro-",3-Nitrothiophene,22374,DTXSID10231621,[O-][N+](=O)c1c[s]cc1,InChI=1S/C4H3NO2S/c6-5(7)4-1-2-8-3-4/h1-3H,SIPCFXFCVTUAID-UHFFFAOYSA-N,?,225.0,103411
103415,824-22-6,824-22-6,Cc1cccc2CCCc21,"1H-INDENE, 2,3-DIHYDRO-4-METHYL-",4-Methylindan,"4-methyl-2,3-dihydro-1H-indene",22378,DTXSID7073931,Cc1cccc2CCCc21,"InChI=1S/C10H12/c1-8-4-2-5-9-6-3-7-10(8)9/h2,4-5H,3,6-7H2,1H3",LNNSODHYZXCEJP-UHFFFAOYSA-N,?,205.3,103415