ChemID,source_casrn,CAS,SMILES,NAME,preferred_name,iupac,MPID,dsstox_substance_id,Canonical_QSARr,InChI_Code_QSARr,InChI Key_QSARr,Salt_Solvent,Salt_Solvent_ID,MP,ID
105934,1121-31-9,1121-31-9,[O-][n+]1ccccc1S,"2-Pyridinethiol, 1-oxide",2-Mercaptopyridine monoxide,pyridine-2-thiol 1-oxide,32821,DTXSID4048010,[O-][n+]1ccccc1S,"InChI=1S/C5H5NOS/c7-6-4-2-1-3-5(6)8/h1-4,8H",FGVVTMRZYROCTH-UHFFFAOYSA-N,?,,70.5,105934
105938,1122-54-9,1122-54-9,CC(=O)c1cc[n]cc1,4-ACETYLPYRIDINE,4-Acetylpyridine,1-(pyridin-4-yl)ethanone,32825,DTXSID0022147,CC(=O)c1cc[n]cc1,"InChI=1S/C7H7NO/c1-6(9)7-2-4-8-5-3-7/h2-5H,1H3",WMQUKDQWMMOHSA-UHFFFAOYSA-N,?,,16.0,105938
105943,1123-25-7,1123-25-7,CC1(CCCCC1)C(O)=O,1-Methylcyclohexanecarboxylic acid,1-Methylcyclohexanecarboxylic acid,1-Methylcyclohexane-1-carboxylic acid,32829,DTXSID10149979,CC1(CCCCC1)C(O)=O,"InChI=1S/C8H14O2/c1-8(7(9)10)5-3-2-4-6-8/h2-6H2,1H3,(H,9,10)",REHQLKUNRPCYEW-UHFFFAOYSA-N,?,,37.5,105943
105947,1124-07-8,1124-07-8,Cc1cc(O)c(Cl)cc1Cl,"2,4-Dichloro-5-methylphenol","4,6-Dichloro-m-cresol","2,4-Dichloro-5-methylphenol",32833,DTXSID10150025,Cc1cc(O)c(Cl)cc1Cl,"InChI=1S/C7H6Cl2O/c1-4-2-7(10)6(9)3-5(4)8/h2-3,10H,1H3",NDCNJVOXMCCKBP-UHFFFAOYSA-N,?,,73.0,105947
105951,1125-60-6,1125-60-6,Nc1cccc2c[n]ccc21,5-ISOQUINOLINAMINE,Isoquinol-5-ylamine,ISOQUINOLIN-5-AMINE,32837,DTXSID80150077,Nc1cccc2c[n]ccc21,"InChI=1S/C9H8N2/c10-9-3-1-2-7-6-11-5-4-8(7)9/h1-6H,10H2",DTVYNUOOZIKEEX-UHFFFAOYSA-N,?,,128.0,105951
105955,1126-78-9,1126-78-9,CCCCNc1ccccc1,N-BUTYLANILINE,N-Butylaniline,N-butylaniline,32841,DTXSID9044370,CCCCNc1ccccc1,"InChI=1S/C10H15N/c1-2-3-9-11-10-7-5-4-6-8-10/h4-8,11H,2-3,9H2,1H3",VSHTWPWTCXQLQN-UHFFFAOYSA-N,?,,-14.4,105955
105959,1128-54-7,1128-54-7,Cc1cc[n]([n]1)-c1ccccc1,3-Methyl-1-phenylpyrazole,3-Methyl-1-phenyl-1H-pyrazole,3-Methyl-1-phenylpyrazole,32844,DTXSID40150179,Cc1cc[n]([n]1)-c1ccccc1,"InChI=1S/C10H10N2/c1-9-7-8-12(11-9)10-5-3-2-4-6-10/h2-8H,1H3",RJXLUGSJEMSDPK-UHFFFAOYSA-N,?,,37.0,105959
105963,1131-18-6,1131-18-6,Cc1cc(N)[n]([n]1)-c1ccccc1,"1H-Pyrazol-5-amine, 3-methyl-1-phenyl-",3-Methyl-1-phenyl-1H-pyrazol-5-amine,3-methyl-1-phenyl-1H-pyrazol-5-amine,32848,DTXSID6044517,Cc1cc(N)[n]([n]1)-c1ccccc1,"InChI=1S/C10H11N3/c1-8-7-10(11)13(12-8)9-5-3-2-4-6-9/h2-7H,11H2,1H3",FMKMKBLHMONXJM-UHFFFAOYSA-N,?,,116.0,105963
105967,1131-64-2,1131-64-2,NC(=N)N1Cc2ccccc2CC1,"2(1H)-ISOQUINOLINECARBOXIMIDAMIDE, 3,4-DIHYDRO-",Debrisoquin,"3,4-dihydroisoquinoline-2(1H)-carboximidamide",32852,DTXSID7022885,NC(=N)N1Cc2ccccc2CC1,"InChI=1S/C10H13N3/c11-10(12)13-6-5-8-3-1-2-4-9(8)7-13/h1-4H,5-7H2,(H3,11,12)",JWPGJSVJDAJRLW-UHFFFAOYSA-N,?,,279.0,105967
105971,1132-66-7,1132-66-7,CCCCCCOc1ccccc1,"BENZENE, (HEXYLOXY)-","Benzene, (hexyloxy)-",C12H18O,32856,DTXSID80333762,CCCCCCOc1ccccc1,"InChI=1S/C12H18O/c1-2-3-4-8-11-13-12-9-6-5-7-10-12/h5-7,9-10H,2-4,8,11H2,1H3",KNRQFACTBMDELK-UHFFFAOYSA-N,?,,-19.0,105971
105975,1134-36-7,1134-36-7,Nc1cc(ccc1O)-c1ccccc1,"(1,1'-Biphenyl)-4-ol, 3-amino-","[1,1'-Biphenyl]-4-ol, 3-amino-",2-Amino-4-phenylphenol,32860,DTXSID8061553,Nc1cc(ccc1O)-c1ccccc1,"InChI=1S/C12H11NO/c13-11-8-10(6-7-12(11)14)9-4-2-1-3-5-9/h1-8,14H,13H2",IGIDZGNPFWGICD-UHFFFAOYSA-N,?,,200.0,105975
105980,1137-41-3,1137-41-3,Nc1ccc(cc1)C(=O)c1ccccc1,4-BENZOYLANILINE,"Methanone, (4-aminophenyl)phenyl-",(4-aminophenyl)-phenylmethanone,32864,DTXSID8061557,Nc1ccc(cc1)C(=O)c1ccccc1,"InChI=1S/C13H11NO/c14-12-8-6-11(7-9-12)13(15)10-4-2-1-3-5-10/h1-9H,14H2",RBKHNGHPZZZJCI-UHFFFAOYSA-N,?,,122.5,105980
105986,1142-97-8,1142-97-8,O=S(=O)(Sc1ccccc1)c1ccc(Cl)cc1,"BENZENESULFONOTHIOIC ACID, 4-CHLORO-, S-PHENYL E","Benzenesulfonothioic acid, 4-chloro-, S-phenyl ester",C12H9ClO2S2,32868,DTXSID40333768,O=S(=O)(Sc1ccccc1)c1ccc(Cl)cc1,"InChI=1S/C12H9ClO2S2/c13-10-6-8-12(9-7-10)17(14,15)16-11-4-2-1-3-5-11/h1-9H",OZBQHMNNLSUKDP-UHFFFAOYSA-N,?,,-86.8,105986
105990,1146-21-0,1146-21-0,CC(C)C1(Cc2ccco2)C(=O)NC(=O)NC1=O,5-Furfuryl-5-isopropylbarbituric Acid,5-Furfuryl-5-isopropylbarbituric acid,"5-(furan-2-ylmethyl)-5-propan-2-yl-1,3-diazinane-2,4,6-trione",32872,DTXSID00150791,CC(C)C1(Cc2ccco2)C(=O)NC(=O)NC1=O,"InChI=1S/C12H14N2O4/c1-7(2)12(6-8-4-3-5-18-8)9(15)13-11(17)14-10(12)16/h3-5,7H,6H2,1-2H3,(H2,13,14,15,16,17)",GPMGSASPWYMZHC-UHFFFAOYSA-N,?,,169.0,105990
105994,1148-79-4,1148-79-4,c1ccc[n]c1-c1cccc([n]1)-c1cccc[n]1,"2,2':6',2''-TERPYRIDINE","2,2':6',2''-Terpyridine","2,6-di(pyridin-2-yl)pyridine",32876,DTXSID2061567,c1ccc[n]c1-c1cccc([n]1)-c1cccc[n]1,InChI=1S/C15H11N3/c1-3-10-16-12(6-1)14-8-5-9-15(18-14)13-7-2-4-11-17-13/h1-11H,DRGAZIDRYFYHIJ-UHFFFAOYSA-N,?,,90.0,105994
105999,1153-51-1,1153-51-1,C[C@]12CC[C@H]3[C@@H](CC[C@H]4C[C@H](O)CC[C@@]43C)[C@@H]1CC=C2,"(3a,5a)-Androst-16-en-3-ol","Androst-16-en-3-ol, (3.alpha.,5.alpha.)-","(3R,5S,8R,9S,10S,13R,14S)-10,13-dimethyl-2,3,4,5,6,7,8,9,11,12,14,15-dodecahydro-1H-cyclopenta[a]phenanthren-3-ol",32880,DTXSID2075394,CC12CCC3C(CCC4CC(O)CCC43C)C1CC=C2,"InChI=1S/C19H30O/c1-18-9-3-4-16(18)15-6-5-13-12-14(20)7-11-19(13,2)17(15)8-10-18/h3,9,13-17,20H,4-8,10-12H2,1-2H3",KRVXMNNRSSQZJP-UHFFFAOYSA-N,?,,142.75,105999
106004,1159-93-9,1159-93-9,CN(C)CCN1C(=O)c2ccccc2Nc2cc(Cl)ccc12,CLOBENZEPAM,Clobenzepam,"2-chloro-5-(2-dimethylaminoethyl)-11H-benzo[b][1,4]benzodiazepin-6-one",32884,DTXSID50151218,CN(C)CCN1C(=O)c2ccccc2Nc2cc(Cl)ccc12,"InChI=1S/C17H18ClN3O/c1-20(2)9-10-21-16-8-7-12(18)11-15(16)19-14-6-4-3-5-13(14)17(21)22/h3-8,11,19H,9-10H2,1-2H3",IDWVKNARDDZONS-UHFFFAOYSA-N,?,,165.5,106004
106013,1172-02-7,1172-02-7,N#CC(C#N)=C1c2cc(cc(c2-c2ccc(cc21)[N+]([O-])=O)[N+]([O-])=O)[N+]([O-])=O,"9-Dicyanomethylene-2,4,7-trinitrofluorene","Propanedinitrile, (2,4,7-trinitro-9H-fluoren-9-ylidene)-","2-(2,4,7-trinitrofluoren-9-ylidene)propanedinitrile",32892,DTXSID6061577,N#CC(C#N)=C1c2cc(cc(c2-c2ccc(cc21)[N+]([O-])=O)[N+]([O-])=O)[N+]([O-])=O,InChI=1S/C16H5N5O6/c17-6-8(7-18)15-12-3-9(19(22)23)1-2-11(12)16-13(15)4-10(20(24)25)5-14(16)21(26)27/h1-5H,POJAQDYLPYBBPG-UHFFFAOYSA-N,?,,267.0,106013
106018,1186-53-4,NOCAS_870854,CC(C)C(C)C(C)(C)C,"2,2,3,4-TETRAMETHYLPENTANE",,,32897,DTXSID30870854,CC(C)C(C)C(C)(C)C,"InChI=1S/C9H20/c1-7(2)8(3)9(4,5)6/h7-8H,1-6H3",VZFMYOCAEQDWDY-UHFFFAOYSA-N,?,,-121.0,106018
106022,1190-39-2,1190-39-2,CCCCOC(=O)CC(=O)OCCCC,"PROPANEDIOIC ACID, DIBUTYL ESTER","Propanedioic acid, dibutyl ester",dibutyl propanedioate,32901,DTXSID30152288,CCCCOC(=O)CC(=O)OCCCC,"InChI=1S/C11H20O4/c1-3-5-7-14-10(12)9-11(13)15-8-6-4-2/h3-9H2,1-2H3",NFKGQHYUYGYHIS-UHFFFAOYSA-N,?,,-83.0,106022
106026,1191-04-4,1191-04-4,CCCC=CC(O)=O,2-Hexenoic acid,2-Hexenoic acid,,32905,DTXSID5061588,CCCC=CC(O)=O,"InChI=1S/C6H10O2/c1-2-3-4-5-6(7)8/h4-5H,2-3H2,1H3,(H,7,8)/b5-4+",NIONDZDPPYHYKY-SNAWJCMRSA-N,?,,36.5,106026
106032,1192-28-5,1192-28-5,ON=C1CCCC1,"Cyclopentanone, oxime",Cyclopentanone oxime,N-hydroxycyclopentanimine,32909,DTXSID0020363,O=NC1CCCC1,"InChI=1S/C5H9NO/c7-6-5-3-1-2-4-5/h5H,1-4H2",VGUWNAQRECZTED-UHFFFAOYSA-N,?,,57.8,106032
106037,1193-18-6,1193-18-6,CC1CCCC(=O)C=1,"2-Cyclohexen-1-one, 3-methyl-",3-Methyl-2-cyclohexen-1-one,3-methylcyclohex-2-en-1-one,32913,DTXSID8035186,CC1CCCC(=O)C=1,"InChI=1S/C7H10O/c1-6-3-2-4-7(8)5-6/h5H,2-4H2,1H3",IITQJMYAYSNIMI-UHFFFAOYSA-N,?,,-21.0,106037
106041,1193-82-4,18453-46-8,C[S@](=O)c1ccccc1,METHYL PHENYL SULFOXIDE,"Benzene, [(S)-methylsulfinyl]-",C7H8OS,32917,DTXSID70452895,CS(=O)c1ccccc1,"InChI=1S/C7H8OS/c1-9(8)7-5-3-2-4-6-7/h2-6H,1H3",JXTGICXCHWMCPM-UHFFFAOYSA-N,?,,32.0,106041
106047,1195-32-0,1195-32-0,Cc1ccc(cc1)C(C)=C,"Benzene, 1-methyl-4-(1-methylethenyl)-",1-Methyl-4-(prop-1-en-2-yl)benzene,1-methyl-4-(prop-1-en-2-yl)benzene,32921,DTXSID7047564,Cc1ccc(cc1)C(C)=C,"InChI=1S/C10H12/c1-8(2)10-6-4-9(3)5-7-10/h4-7H,1H2,2-3H3",MMSLOZQEMPDGPI-UHFFFAOYSA-N,?,,-20.0,106047
106051,1197-19-9,1197-19-9,CN(C)c1ccc(cc1)C#N,"P-CYANO-N,N-DIMETHYLANILINE","Benzonitrile, 4-(dimethylamino)-",4-Dimethylaminobenzonitrile,32925,DTXSID4073255,CN(C)c1ccc(cc1)C#N,"InChI=1S/C9H10N2/c1-11(2)9-5-3-8(7-10)4-6-9/h3-6H,1-2H3",JYMNQRQQBJIMCV-UHFFFAOYSA-N,?,,74.0,106051
106055,1199-77-5,NOCAS_870863,C/C(=C\c1ccccc1)/C(O)=O,ALPHA-METHYLCINNAMIC ACID,,,32929,DTXSID20870863,CC(=Cc1ccccc1)C(O)=O,"InChI=1S/C10H10O2/c1-8(10(11)12)7-9-5-3-2-4-6-9/h2-7H,1H3,(H,11,12)/b8-7-",XNCRUNXWPDJHGV-FPLPWBNLSA-N,?,,80.0,106055
106060,1201-26-9,1201-26-9,CC(=O)Cc1c[nH]c2ccccc21,3-Indolylacetone,3-Indolylacetone,1-(1H-indol-3-yl)propan-2-one,32933,DTXSID20152676,CC(=O)Cc1c[nH]c2ccccc21,"InChI=1S/C11H11NO/c1-8(13)6-9-7-12-11-5-3-2-4-10(9)11/h2-5,7,12H,6H2,1H3",LDVHYJKRIKBISQ-UHFFFAOYSA-N,?,,116.0,106060
106064,1202-34-2,1202-34-2,c1ccc[n]c1Nc1cccc[n]1,N-2-PYRIDINYL-2-PYRIDINAMINE,"2-Pyridinamine, N-2-pyridinyl-",N-pyridin-2-ylpyridin-2-amine,32937,DTXSID5061619,c1ccc[n]c1Nc1cccc[n]1,"InChI=1S/C10H9N3/c1-3-7-11-9(5-1)13-10-6-2-4-8-12-10/h1-8H,(H,11,12,13)",HMMPCBAWTWYFLR-UHFFFAOYSA-N,?,,90.5,106064
106070,1205-91-0,1205-91-0,CC(=O)Oc1ccc(cc1)OC(C)=O,"1,4-Benzenediol, diacetate",,,32941,DTXSID30875905,CC(=O)Oc1ccc(cc1)OC(C)=O,"InChI=1S/C10H10O4/c1-7(11)13-9-3-5-10(6-4-9)14-8(2)12/h3-6H,1-2H3",AKOGNYJNGMLDOA-UHFFFAOYSA-N,?,,123.5,106070
106074,1210-33-9,1210-33-9,ClC1c2ccccc2CCc2ccccc21,"5H-Dibenzo(a,d)cycloheptene, 10,11-dihydro-5-chl","5H-Dibenzo(a,d)cycloheptene, 10,11-dihydro-5-chloro-",,32945,DTXSID20153103,ClC1c2ccccc2CCc2ccccc21,"InChI=1S/C15H13Cl/c16-15-13-7-3-1-5-11(13)9-10-12-6-2-4-8-14(12)15/h1-8,15H,9-10H2",QPERNSDCEUTOTE-UHFFFAOYSA-N,?,,106.5,106074
106078,1213-06-5,1213-06-5,CCN(CC)S(=O)(=O)c1ccc(cc1)C(O)=O,Ethebenecid,Ethebenecid,4-(diethylsulfamoyl)benzoic acid,32949,DTXSID7023011,CCN(CC)S(=O)(=O)c1ccc(cc1)C(O)=O,"InChI=1S/C11H15NO4S/c1-3-12(4-2)17(15,16)10-7-5-9(6-8-10)11(13)14/h5-8H,3-4H2,1-2H3,(H,13,14)",UACOQEQOBAQRDQ-UHFFFAOYSA-N,?,,193.0,106078
106082,1218-34-4,NOCAS_861672,CC(=O)NC(Cc1c[nH]c2ccccc21)C(O)=O,N-Acetyltryptophan,,,32953,DTXSID40861672,CC(=O)NC(Cc1c[nH]c2ccccc21)C(O)=O,"InChI=1S/C13H14N2O3/c1-8(16)15-12(13(17)18)6-9-7-14-11-5-3-2-4-10(9)11/h2-5,7,12,14H,6H2,1H3,(H,15,16)(H,17,18)",DZTHIGRZJZPRDV-UHFFFAOYSA-N,?,,189.5,106082
106086,1222-98-6,1222-98-6,[O-][N+](=O)c1ccc(/C=C/C(=O)c2ccccc2)cc1,"2-Propen-1-one, 3-(4-nitrophenyl)-1-phenyl-",4-Nitrochalcone,(2E)-3-(4-nitrophenyl)-1-phenylprop-2-en-1-one,32957,DTXSID7049211,[O-][N+](=O)c1ccc(C=CC(=O)c2ccccc2)cc1,InChI=1S/C15H11NO3/c17-15(13-4-2-1-3-5-13)11-8-12-6-9-14(10-7-12)16(18)19/h1-11H/b11-8+,WDZGGAFMGIOIQS-DHZHZOJOSA-N,?,,159.0,106086
106091,1240-37-5,1240-37-5,S=C(Nc1cccc2ccccc21)Nc1cccc2ccccc21,"Urea, 1,3-bis(1-naphthyl)-2-thio-","Urea, 1,3-bis(1-naphthyl)-2-thio-","1,3-di(naphthalen-1-yl)thiourea",32961,DTXSID70154185,S=C(Nc1cccc2ccccc21)Nc1cccc2ccccc21,"InChI=1S/C21H16N2S/c24-21(22-19-13-5-9-15-7-1-3-11-17(15)19)23-20-14-6-10-16-8-2-4-12-18(16)20/h1-14H,(H2,22,23,24)",VFCZSWPNOOGGAJ-UHFFFAOYSA-N,?,,207.5,106091
106095,1249-97-4,1249-97-4,CN(C)c1cc2Sc3cc(ccc3N(C(=O)c3ccccc3)c2cc1)N(C)C,"10H-Phenothiazine-3,7-diamine, 10-benzoyl-N,N,N'","10H-Phenothiazine-3,7-diamine, 10-benzoyl-N,N,N',N'-tetramethyl-","[3,7-bis(dimethylamino)phenothiazin-10-yl]-phenylmethanone",32965,DTXSID3061639,CN(C)c1cc2Sc3cc(ccc3N(C(=O)c3ccccc3)c2cc1)N(C)C,"InChI=1S/C23H23N3OS/c1-24(2)17-10-12-19-21(14-17)28-22-15-18(25(3)4)11-13-20(22)26(19)23(27)16-8-6-5-7-9-16/h5-15H,1-4H3",ZKURGBYDCVNWKH-UHFFFAOYSA-N,?,,195.0,106095
106110,1330-96-7,1330-96-7,CCCCCCCCOC(=O)c1ccccc1C(=O)OCCCCCCCC(C)C,ISODECYLOCTYLPHTHALATE,"1,2-Benzenedicarboxylic acid, isodecyl octyl ester","O1-(8-methylnonyl) O2-octyl benzene-1,2-dicarboxylate",32969,DTXSID9061675,CCCCCCCCOC(=O)c1ccccc1C(=O)OCCCCCCCC(C)C,"InChI=1S/C26H42O4/c1-4-5-6-7-10-15-20-29-25(27)23-18-13-14-19-24(23)26(28)30-21-16-11-8-9-12-17-22(2)3/h13-14,18-19,22H,4-12,15-17,20-21H2,1-3H3",UXLBXTIBYMXRNX-UHFFFAOYSA-N,?,,98.0,106110
106119,1420-07-1,1420-07-1,CC(C)(C)c1cc(cc(c1O)[N+]([O-])=O)[N+]([O-])=O,Dinoterb,Dinoterb,"2-tert-butyl-4,6-dinitrophenol",32973,DTXSID7041883,CC(C)(C)c1cc(cc(c1O)[N+]([O-])=O)[N+]([O-])=O,"InChI=1S/C10H12N2O5/c1-10(2,3)7-4-6(11(14)15)5-8(9(7)13)12(16)17/h4-5,13H,1-3H3",IIPZYDQGBIWLBU-UHFFFAOYSA-N,?,,126.0,106119
106123,1421-63-2,1421-63-2,CCCC(=O)c1cc(O)c(O)cc1O,"2,4,5-Trihydroxybutyrophenone","2',4',5'-Trihydroxybutyrophenone","1-(2,4,5-trihydroxyphenyl)butan-1-one",32977,DTXSID2026232,CCCC(=O)c1cc(O)c(O)cc1O,"InChI=1S/C10H12O4/c1-2-3-7(11)6-4-9(13)10(14)5-8(6)12/h4-5,12-14H,2-3H2,1H3",SRUQARLMFOLRDN-UHFFFAOYSA-N,?,,154.5,106123
106127,1435-50-3,1435-50-3,Clc1cc(Br)c(Cl)cc1,"BENZENE, 2-BROMO-1,4-DICHLORO-","Benzene, 2-bromo-1,4-dichloro-","2-BROMO-1,4-DICHLOROBENZENE",32981,DTXSID7075185,Clc1cc(Br)c(Cl)cc1,InChI=1S/C6H3BrCl2/c7-5-3-4(8)1-2-6(5)9/h1-3H,OVXVQBCRONSPDC-UHFFFAOYSA-N,?,,35.0,106127
106132,1436-34-6,NOCAS_870872,CCCCC1CO1,"OXIRANE, BUTYL-",,,32986,DTXSID10870872,CCCCC1CO1,"InChI=1S/C6H12O/c1-2-3-4-6-5-7-6/h6H,2-5H2,1H3",WHNBDXQTMPYBAT-UHFFFAOYSA-N,?,,94.0,106132
106138,1440-61-5,1440-61-5,O=C(CCl)N1CCOCC1,"Morpholine, 4-(chloroacetyl)-","Morpholine, 4-(chloroacetyl)-",2-chloro-1-morpholin-4-ylethanone,32990,DTXSID9073258,O=C(CCl)N1CCOCC1,InChI=1S/C6H10ClNO2/c7-5-6(9)8-1-3-10-4-2-8/h1-5H2,YMQRPXBBBOXHNZ-UHFFFAOYSA-N,?,,37.0,106138
106142,1450-14-2,1450-14-2,C[Si](C)(C)[Si](C)(C)C,"DISILANE, HEXAMETHYL-","Disilane, hexamethyl-",trimethyl-trimethylsilylsilane,32994,DTXSID2061698,C[Si](C)(C)[Si](C)(C)C,"InChI=1S/C6H18Si2/c1-7(2,3)8(4,5)6/h1-6H3",NEXSMEBSBIABKL-UHFFFAOYSA-N,?,,13.5,106142
106146,1453-52-7,1453-52-7,ON=C(C1CC1)C1CC1,"Cyclopropyl ketone, oxime","Cyclopropyl ketone, oxime",N-(dicyclopropylmethylidene)hydroxylamine,32998,DTXSID80162973,O=NC(C1CC1)C1CC1,"InChI=1S/C7H11NO/c9-8-7(5-1-2-5)6-3-4-6/h5-7H,1-4H2",JWEUNIKNRGHOFV-UHFFFAOYSA-N,?,,76.5,106146
106150,1454-84-8,NOCAS_870875,CCCCCCCCCCCCCCCCCCCO,1-NONADECANOL,,,33002,DTXSID90870875,CCCCCCCCCCCCCCCCCCCO,"InChI=1S/C19H40O/c1-2-3-4-5-6-7-8-9-10-11-12-13-14-15-16-17-18-19-20/h20H,2-19H2,1H3",XGFDHKJUZCCPKQ-UHFFFAOYSA-N,?,,63.3,106150
106154,1457-85-8,1457-85-8,CCOC(=O)C(=O)Nc1ccccc1,"OXANILIC ACID,ETHYL ESTER",Ethyl oxanilate,ethyl 2-oxo-2-(phenylamino)acetate,33006,DTXSID3074527,CCOC(=O)C(=O)Nc1ccccc1,"InChI=1S/C10H11NO3/c1-2-14-10(13)9(12)11-8-6-4-3-5-7-8/h3-7H,2H2,1H3,(H,11,12)",YDGAUBHNAKCSKF-UHFFFAOYSA-N,?,,65.5,106154
106158,1459-93-4,1459-93-4,COC(=O)c1cc(ccc1)C(=O)OC,DIMETHYL ISOPHTHALATE,Dimethyl isophthalate,"dimethyl benzene-1,3-dicarboxylate",33010,DTXSID8027402,COC(=O)c1cc(ccc1)C(=O)OC,"InChI=1S/C10H10O4/c1-13-9(11)7-4-3-5-8(6-7)10(12)14-2/h3-6H,1-2H3",VNGOYPQMJFJDLV-UHFFFAOYSA-N,?,,67.5,106158
106164,1464-44-4|2818-58-8,2871-15-0,OCC1O[C@@H](Oc2ccccc2)[C@H](O)[C@@H](O)[C@H]1O,"BETA-D-GLUCOPYRANOSIDE, PHENYL, BETA-D-GALACTOPYRANOSIDE, PHENYL",PUBCHEM_57369634,C12H16O6,33014|33816,DTXSID30724540,OCC1OC(Oc2ccccc2)C(O)C(O)C1O,"InChI=1S/C12H16O6/c13-6-8-9(14)10(15)11(16)12(18-8)17-7-4-2-1-3-5-7/h1-5,8-16H,6H2",NEZJDVYDSZTRFS-UHFFFAOYSA-N,?,,165.5,106164
106169,1472-87-3,1472-87-3,COC(=O)CCCCCCCCCCCC(=O)OC,DIMETHYL TRIDECANEDIOATE,"Tridecanedioic acid, dimethyl ester",DIMETHYL TRIDECANEDIOATE,33019,DTXSID8061717,COC(=O)CCCCCCCCCCCC(=O)OC,"InChI=1S/C15H28O4/c1-18-14(16)12-10-8-6-4-3-5-7-9-11-13-15(17)19-2/h3-13H2,1-2H3",WWSBQOYADFGDQE-UHFFFAOYSA-N,?,,36.0,106169
106175,1477-50-5,1477-50-5,OC(=O)c1cc2ccccc2[nH]1,INDOLE-2-CARBOXYLIC ACID,Indole-2-carboxylic acid,1H-Indole-2-carboxylic acid,33024,DTXSID20163782,OC(=O)c1cc2ccccc2[nH]1,"InChI=1S/C9H7NO2/c11-9(12)8-5-6-3-1-2-4-7(6)10-8/h1-5,10H,(H,11,12)",HCUARRIEZVDMPT-UHFFFAOYSA-N,?,,206.5,106175
106179,1484-12-4,1484-12-4,C[n]1c2ccccc2c2ccccc12,"9H-CARBAZOLE, 9-METHYL-","9H-Carbazole, 9-methyl-",9-Methylcarbazole,33028,DTXSID1073945,C[n]1c2ccccc2c2ccccc12,"InChI=1S/C13H11N/c1-14-12-8-4-2-6-10(12)11-7-3-5-9-13(11)14/h2-9H,1H3",SDFLTYHTFPTIGX-UHFFFAOYSA-N,?,,89.34,106179
106183,1491-41-4,1491-41-4,CCOP(=O)(ON1C(=O)c2cccc3cccc(c32)C1=O)OCC,Naftalofos,Naftalofos,"2-[(diethoxyphosphoryl)oxy]-1H-benzo[de]isoquinoline-1,3(2H)-dione",33032,DTXSID2042193,CCOP(=O)(ON1C(=O)c2cccc3cccc(c32)C1=O)OCC,"InChI=1S/C16H16NO6P/c1-3-21-24(20,22-4-2)23-17-15(18)12-9-5-7-11-8-6-10-13(14(11)12)16(17)19/h5-10H,3-4H2,1-2H3",QNSIFYWAPWSAIJ-UHFFFAOYSA-N,?,,177.0,106183
106187,1493-02-3,1493-02-3,O=CF,FORMYL FLUORIDE,Formyl fluoride,FORMYL FLUORIDE,33036,DTXSID6073946,O=CF,InChI=1S/CHFO/c2-1-3/h1H,NHGVZTMBVDFPHJ-UHFFFAOYSA-N,?,,-142.2,106187
106192,1499-10-1,1499-10-1,c1cccc2c(c3ccccc3c(c21)-c1ccccc1)-c1ccccc1,"9,10-DIPHENYLANTHRACENE","Anthracene, 9,10-diphenyl-","9,10-di(phenyl)anthracene",33040,DTXSID1061734,c1cccc2c(c3ccccc3c(c21)-c1ccccc1)-c1ccccc1,InChI=1S/C26H18/c1-3-11-19(12-4-1)25-21-15-7-9-17-23(21)26(20-13-5-2-6-14-20)24-18-10-8-16-22(24)25/h1-18H,FCNCGHJSNVOIKE-UHFFFAOYSA-N,?,,246.0,106192
106196,1502-22-3,NOCAS_870879,O=C1CCCCC1C1CCCCC=1,"CYCLOHEXANONE, 2-(1-CYCLOHEXEN-1-YL)-",,,33044,DTXSID30870879,O=C1CCCCC1C1CCCCC=1,"InChI=1S/C12H18O/c13-12-9-5-4-8-11(12)10-6-2-1-3-7-10/h6,11H,1-5,7-9H2",GVNVAWHJIKLAGL-UHFFFAOYSA-N,?,,-78.0,106196
106200,1511-62-2,1511-62-2,FC(F)Br,Bromodifluoromethane,Bromodifluoromethane,bromo-difluoromethane,33048,DTXSID5061740,FC(F)Br,InChI=1S/CHBrF2/c2-1(3)4/h1H,GRCDJFHYVYUNHM-UHFFFAOYSA-N,?,,-145.0,106200
106207,1518-84-9,1518-84-9,Oc1ccccc1C1CCCC1,2-Cyclopentylphenol,2-Cyclopentylphenol,2-Cyclopentylphenol,33054,DTXSID20164875,Oc1ccccc1C1CCCC1,"InChI=1S/C11H14O/c12-11-8-4-3-7-10(11)9-5-1-2-6-9/h3-4,7-9,12H,1-2,5-6H2",JHEKSKQMOBLXQS-UHFFFAOYSA-N,?,,34.5,106207
106212,1521-41-1,1521-41-1,COc1ccc(cc1OC)C(N)=O,"Benzamide, 3,4-dimethoxy-","3,4-Dimethoxybenzamide","3,4-Dimethoxybenzamide",33058,DTXSID1074549,COc1ccc(cc1OC)C(N)=O,"InChI=1S/C9H11NO3/c1-12-7-4-3-6(9(10)11)5-8(7)13-2/h3-5H,1-2H3,(H2,10,11)",XNDZRGTVUVVHQT-UHFFFAOYSA-N,?,,164.0,106212
106217,1530-03-6,NOCAS_865187,CCC(c1ccccc1)c1ccccc1,"1,1-DIPHENYLPROPANE",,,33062,DTXSID10865187,CCC(c1ccccc1)c1ccccc1,"InChI=1S/C15H16/c1-2-15(13-9-5-3-6-10-13)14-11-7-4-8-12-14/h3-12,15H,2H2,1H3",BUZMJVBOGDBMGI-UHFFFAOYSA-N,?,,13.3,106217
106223,1534-26-5,1534-26-5,CCCCCCCCCCC(=O)CC,3-TRIDECANONE,Tridecan-3-one,Tridecan-3-one,33067,DTXSID90165319,CCCCCCCCCCC(=O)CC,"InChI=1S/C13H26O/c1-3-5-6-7-8-9-10-11-12-13(14)4-2/h3-12H2,1-2H3",ZDIXOWNDGFVYNK-UHFFFAOYSA-N,?,,31.0,106223
106227,1551-21-9,1551-21-9,CSC(C)C,3-METHYL-2-THIABUTANE,"Propane, 2-(methylthio)-",2-methylsulfanylpropane,33071,DTXSID40165809,CSC(C)C,"InChI=1S/C4H10S/c1-4(2)5-3/h4H,1-3H3",ROSSIHMZZJOVOU-UHFFFAOYSA-N,?,,-101.5,106227
106232,1560-89-0,1560-89-0,CCCCCCCCCCCCCCCC(C)C,"HEPTADECANE, 2-METHYL-","Heptadecane, 2-methyl-",2-METHYLHEPTADECANE,33075,DTXSID3073266,CCCCCCCCCCCCCCCC(C)C,"InChI=1S/C18H38/c1-4-5-6-7-8-9-10-11-12-13-14-15-16-17-18(2)3/h18H,4-17H2,1-3H3",RJWUMFHQJJBBOD-UHFFFAOYSA-N,?,,5.7,106232
106236,1568-70-3,1568-70-3,COc1cc(c(O)cc1)[N+]([O-])=O,4-METHOXY-2-NITROPHENOL,"Phenol, 4-methoxy-2-nitro-",4-METHOXY-2-NITROPHENOL,33079,DTXSID80166133,COc1cc(c(O)cc1)[N+]([O-])=O,"InChI=1S/C7H7NO4/c1-12-5-2-3-7(9)6(4-5)8(10)11/h2-4,9H,1H3",YBUGOACXDPDUIR-UHFFFAOYSA-N,?,,79.0,106236
106240,1571-33-1,1571-33-1,OP(O)(=O)c1ccccc1,PHENYLPHOSPHONIC ACID,Phenylphosphonic acid,phenylphosphonic acid,33083,DTXSID2044399,OP(O)(=O)c1ccccc1,"InChI=1S/C6H7O3P/c7-10(8,9)6-4-2-1-3-5-6/h1-5H,(H2,7,8,9)",QLZHNIAADXEJJP-UHFFFAOYSA-N,?,,164.5,106240
106244,1577-22-6,1577-22-6,C=CCCCC(O)=O,5-Hexenoic acid,5-Hexenoic acid,,33087,DTXSID30166305,C=CCCCC(O)=O,"InChI=1S/C6H10O2/c1-2-3-4-5-6(7)8/h2H,1,3-5H2,(H,7,8)",XUDOZULIAWNMIU-UHFFFAOYSA-N,?,,-37.0,106244
106248,1583-58-0,1583-58-0,OC(=O)c1ccc(F)cc1F,"2,4-Difluorobenzoic acid","2,4-Difluorobenzoic acid","2,4-Difluorobenzoic acid",33091,DTXSID00166397,OC(=O)c1ccc(F)cc1F,"InChI=1S/C7H4F2O2/c8-4-1-2-5(7(10)11)6(9)3-4/h1-3H,(H,10,11)",NJYBIFYEWYWYAN-UHFFFAOYSA-N,?,,189.0,106248
106253,1591-30-6,1591-30-6,N#Cc1ccc(cc1)-c1ccc(cc1)C#N,"(1,1'-Biphenyl)-4,4'-dicarbonitrile","[1,1'-Biphenyl]-4,4'-dicarbonitrile",4-(4-cyanophenyl)benzonitrile,33095,DTXSID2061806,N#Cc1ccc(cc1)-c1ccc(cc1)C#N,InChI=1S/C14H8N2/c15-9-11-1-5-13(6-2-11)14-7-3-12(10-16)4-8-14/h1-8H,KAXYYLCSSXFXKR-UHFFFAOYSA-N,?,,238.0,106253