ChemID,source_casrn,CAS,SMILES,NAME,preferred_name,iupac,MPID,dsstox_substance_id,Canonical_QSARr,InChI_Code_QSARr,InChI Key_QSARr,Salt_Solvent,BP,ID
103162,659-70-1,659-70-1,CC(C)CC(=O)OCCC(C)C,ISOAMYL ISOVALERATE,3-Methylbutyl 3-methylbutanoate,3-methylbutyl 3-methylbutanoate,22140,DTXSID8044757,CC(C)CC(=O)OCCC(C)C,"InChI=1S/C10H20O2/c1-8(2)5-6-12-10(11)7-9(3)4/h8-9H,5-7H2,1-4H3",XINCECQTMHSORG-UHFFFAOYSA-N,?,190.4,103162
103163,659-86-9,659-86-9,C#CCI,"1-PROPYNE, 3-IODO-","1-Propyne, 3-iodo-",3-iodoprop-1-yne,22141,DTXSID10216110,C#CCI,"InChI=1S/C3H3I/c1-2-3-4/h1H,3H2",WGCICQJXVYFFCA-UHFFFAOYSA-N,?,115.0,103163
103164,661-11-0,661-11-0,CCCCCCCF,1-FLUOROHEPTANE,"Heptane, 1-fluoro-",1-FLUOROHEPTANE,22142,DTXSID7060964,CCCCCCCF,"InChI=1S/C7H15F/c1-2-3-4-5-6-7-8/h2-7H2,1H3",BITLXSQYFZTQGC-UHFFFAOYSA-N,?,117.9,103164
103168,670-96-2,670-96-2,c1ccccc1-c1[nH]cc[n]1,"1H-IMIDAZOLE, 2-PHENYL-","1H-Imidazole, 2-phenyl-",2-Phenyl-1H-imidazole,22145,DTXSID7060968,c1ccccc1-c1[nH]cc[n]1,"InChI=1S/C9H8N2/c1-2-4-8(5-3-1)9-10-6-7-11-9/h1-7H,(H,10,11)",ZCUJYXPAKHMBAZ-UHFFFAOYSA-N,?,340.0,103168
103169,671-56-7,NOCAS_870746,C=CC(O)CCl,3-HYDROXY-4-CHLORO-1-BUTENE,,,22146,DTXSID60870746,C=CC(O)CCl,"InChI=1S/C4H7ClO/c1-2-4(6)3-5/h2,4,6H,1,3H2",PIPLRXXGXUVQRX-UHFFFAOYSA-N,?,145.5,103169
103170,672-13-9,672-13-9,COc1ccc(O)c(C=O)c1,2-Hydroxy-4-methoxybenzaldehyde,"m-Anisaldehyde, 6-hydroxy-",2-Hydroxy-5-methoxybenzaldehyde,22147,DTXSID40217478,COc1ccc(O)c(C=O)c1,"InChI=1S/C8H8O3/c1-11-7-2-3-8(10)6(4-7)5-9/h2-5,10H,1H3",FZHSPPYCNDYIKD-UHFFFAOYSA-N,?,247.5,103170
103172,674-76-0|4461-48-7,4461-48-7,CC=CC(C)C,"TRANS-4-METHYL-2-PENTENE, 4-METHYL-2-PENTENE",4-Methyl-2-pentene,?,22149|23646,DTXSID4074302,CC=CC(C)C,"InChI=1S/C6H12/c1-4-5-6(2)3/h4-6H,1-3H3/b5-4+",LGAQJENWWYGFSN-SNAWJCMRSA-N,?,58.8,103172
103173,674-82-8,674-82-8,C=C1CC(=O)O1,DIKETENE,Diketene,4-methylideneoxetan-2-one,22150,DTXSID9027289,C=C1CC(=O)O1,InChI=1S/C4H4O2/c1-3-2-4(5)6-3/h1-2H2,WASQWSOJHCZDFK-UHFFFAOYSA-N,?,126.1,103173
103174,675-09-2,675-09-2,CC1C=C(C)OC(=O)C=1,"2H-Pyran-2-one, 4,6-dimethyl-","2H-Pyran-2-one, 4,6-dimethyl-","4,6-dimethylpyran-2-one",22151,DTXSID6060973,CC1C=C(C)OC(=O)C=1,"InChI=1S/C7H8O2/c1-5-3-6(2)9-7(8)4-5/h3-4H,1-2H3",IXYLIUKQQQXXON-UHFFFAOYSA-N,?,245.0,103174
103176,675-20-7,675-20-7,O=C1CCCCN1,DELTA-VALEROLACTAM,2-Piperidone,piperidin-2-one,22153,DTXSID1060976,O=C1CCCCN1,"InChI=1S/C5H9NO/c7-5-3-1-2-4-6-5/h1-4H2,(H,6,7)",XUWHAWMETYGRKB-UHFFFAOYSA-N,?,256.0,103176
103177,676-97-1,676-97-1,CP(=O)(Cl)Cl,Methyl phosphonic dichloride,Methylphosphonic dichloride,dichlorophosphorylmethane,22154,DTXSID6060979,CP(=O)(Cl)Cl,"InChI=1S/CH3Cl2OP/c1-5(2,3)4/h1H3",SCLFRABIDYGTAZ-UHFFFAOYSA-N,?,163.0,103177
103178,677-21-4,677-21-4,C=CC(F)(F)F,"3,3,3-TRIFLUORO-1-PROPENE","1-Propene, 3,3,3-trifluoro-","3,3,3-trifluoroprop-1-ene",22155,DTXSID9041287,C=CC(F)(F)F,"InChI=1S/C3H3F3/c1-2-3(4,5)6/h2H,1H2",FDMFUZHCIRHGRG-UHFFFAOYSA-N,?,-17.0,103178
103180,677-69-0,677-69-0,FC(I)(C(F)(F)F)C(F)(F)F,"Propane, 1,1,1,2,3,3,3-heptafluoro-2-iodo-","Propane, 1,1,1,2,3,3,3-heptafluoro-2-iodo-","1,1,1,2,3,3,3-Heptafluoro-2-iodopropane",22157,DTXSID5060982,FC(I)(C(F)(F)F)C(F)(F)F,"InChI=1S/C3F7I/c4-1(11,2(5,6)7)3(8,9)10",BBZVTTKMXRPMHZ-UHFFFAOYSA-N,?,40.0,103180
103181,678-26-2,678-26-2,FC(F)(F)C(F)(F)C(F)(F)C(F)(F)C(F)(F)F,"PENTANE, DODECAFLUORO-",Perflenapent,dodecafluoropentane,22158,DTXSID3046613,FC(F)(F)C(F)(F)C(F)(F)C(F)(F)C(F)(F)F,"InChI=1S/C5F12/c6-1(7,2(8,9)4(12,13)14)3(10,11)5(15,16)17",NJCBUSHGCBERSK-UHFFFAOYSA-N,?,29.2,103181
103182,679-84-5,NOCAS_862366,FC(F)C(F)(F)CBr,Halopropane,,,22159,DTXSID40862366,FC(F)C(F)(F)CBr,"InChI=1S/C3H3BrF4/c4-1-3(7,8)2(5)6/h2H,1H2",YVWGMAFXEJHFRO-UHFFFAOYSA-N,?,74.0,103182
103184,679-99-2,NOCAS_870748,FC(F)C(F)(F)C(F)Cl,"Propane, 1-chloro-1,2,2,3,3-pentafluoro-",,,22161,DTXSID80870748,FC(F)C(F)(F)C(F)Cl,"InChI=1S/C3H2ClF5/c4-1(5)3(8,9)2(6)7/h1-2H",FXSNEEBOGAOVIM-UHFFFAOYSA-N,?,28.1,103184
103185,680-31-9,680-31-9,CN(C)P(=O)(N(C)C)N(C)C,HEXAMETHYLPHOSPHORAMIDE,Hexamethylphosphoramide,"N,N,N',N',N'',N''-hexamethylphosphoric triamide",22162,DTXSID6020694,CN(C)P(=O)(N(C)C)N(C)C,"InChI=1S/C6H18N3OP/c1-7(2)11(10,8(3)4)9(5)6/h1-6H3",GNOIPBMMFNIUFM-UHFFFAOYSA-N,?,232.5,103185
103186,681-84-5,681-84-5,CO[Si](OC)(OC)OC,"Silicic acid (H4SiO4), tetramethyl ester",Tetramethyl orthosilicate,tetramethyl orthosilicate,22163,DTXSID3027291,CO[Si](OC)(OC)OC,"InChI=1S/C4H12O4Si/c1-5-9(6-2,7-3)8-4/h1-4H3",LFQCEHFDDXELDD-UHFFFAOYSA-N,?,121.0,103186
103188,682-30-4,682-30-4,CCOP(=O)(C=C)OCC,"Phosphonic acid, vinyl-, diethyl ester","Phosphonic acid, vinyl-, diethyl ester",1-diethoxyphosphorylethene,22165,DTXSID70218372,CCOP(=O)(C=C)OCC,"InChI=1S/C6H13O3P/c1-4-8-10(7,6-3)9-5-2/h6H,3-5H2,1-2H3",DREPONDJUKIQLX-UHFFFAOYSA-N,?,202.0,103188
103189,683-08-9,683-08-9,CP(=O)(OCC)OCC,DIETHYL METHYLPHOSPHONATE,Diethyl methanephosphonate,1-(ethoxy-methylphosphoryl)oxyethane,22166,DTXSID80218449,CP(=O)(OCC)OCC,"InChI=1S/C5H13O3P/c1-4-7-9(3,6)8-5-2/h4-5H2,1-3H3",NYYLZXREFNYPKB-UHFFFAOYSA-N,?,194.0,103189
103190,683-68-1,NOCAS_870749,ClC(Br)C(Cl)Br,"ETHANE, 1,2-DIBROMO-1,2-DICHLORO-",,,22167,DTXSID40870749,ClC(Br)C(Cl)Br,InChI=1S/C2H2Br2Cl2/c3-1(5)2(4)6/h1-2H,RJMDFMUPJANPGX-UHFFFAOYSA-N,?,195.0,103190
103192,684-16-2,684-16-2,O=C(C(F)(F)F)C(F)(F)F,HEXAFLUORO-2-PROPANONE,Hexafluoroacetone,"1,1,1,3,3,3-hexafluoropropan-2-one",22169,DTXSID9043778,O=C(C(F)(F)F)C(F)(F)F,"InChI=1S/C3F6O/c4-2(5,6)1(10)3(7,8)9",VBZWSGALLODQNC-UHFFFAOYSA-N,?,-27.4,103192
103193,684-84-4,NOCAS_870750,CC(O)C(C)CO,"1,3-BUTANEDIOL, 2-METHYL-",,,22170,DTXSID50870750,CC(O)C(C)CO,"InChI=1S/C5H12O2/c1-4(3-6)5(2)7/h4-7H,3H2,1-2H3",GNBPEYCZELNJMS-UHFFFAOYSA-N,?,200.0,103193
103194,685-63-2,685-63-2,FC(F)=C(F)C(F)=C(F)F,"1,3-Butadiene, 1,1,2,3,4,4-hexafluoro-","Hexafluoro-1,3-butadiene","1,1,2,3,4,4-Hexafluorobuta-1,3-diene",22171,DTXSID4060991,FC(F)=C(F)C(F)=C(F)F,InChI=1S/C4F6/c5-1(3(7)8)2(6)4(9)10,LGPPATCNSOSOQH-UHFFFAOYSA-N,?,6.0,103194
103196,688-71-1,688-71-1,CCCOB(OCCC)OCCC,"BORIC ACID (H3BO3), TRIPROPYL ESTER","Boric acid (H3BO3), tripropyl ester",Tripropoxyborane,22173,DTXSID4060995,CCCOB(OCCC)OCCC,"InChI=1S/C9H21BO3/c1-4-7-11-10(12-8-5-2)13-9-6-3/h4-9H2,1-3H3",LTEHWCSSIHAVOQ-UHFFFAOYSA-N,?,179.5,103196
103197,688-74-4,688-74-4,CCCCOB(OCCCC)OCCCC,BUTYL BORATE,Tributyl borate,tributyl borate,22174,DTXSID9026184,CCCCOB(OCCCC)OCCCC,"InChI=1S/C12H27BO3/c1-4-7-10-14-13(15-11-8-5-2)16-12-9-6-3/h4-12H2,1-3H3",LGQXXHMEBUOXRP-UHFFFAOYSA-N,?,234.0,103197
103198,689-89-4|1515-80-6,689-89-4|1515-80-6,C/C=C/C=C/C(=O)OC,"2,4-Hexadienoic acid, methyl ester, (E,E)-, 2,4-HEXADIENOIC ACID, METHYL ESTER",,,22175|22780,DTXSID30862370|DTXSID30878956,CC=CC=CC(=O)OC,"InChI=1S/C7H10O2/c1-3-4-5-6-7(8)9-2/h3-6H,1-2H3/b4-3+,6-5+",KWKVAGQCDSHWFK-VNKDHWASSA-N,?,180.0,103198
103200,690-02-8,690-02-8,COOC,"PEROXIDE, DIMETHYL","Peroxide, dimethyl",methylperoxymethane,22177,DTXSID40219038,COOC,InChI=1S/C2H6O2/c1-3-4-2/h1-2H3,SRXOCFMDUSFFAK-UHFFFAOYSA-N,?,14.0,103200
103202,690-39-1,690-39-1,FC(F)(F)CC(F)(F)F,HFC-236fa (CF3CH2CF3),"1,1,1,3,3,3-Hexafluoropropane","1,1,1,3,3,3-hexafluoropropane",22178,DTXSID8052435,FC(F)(F)CC(F)(F)F,"InChI=1S/C3H2F6/c4-2(5,6)1-3(7,8)9/h1H2",NSGXIBWMJZWTPY-UHFFFAOYSA-N,?,-1.1,103202
103203,690-92-6|690-93-7,3123-93-1,CCC=CC(C)(C)C,"3-HEXENE, 2,2-DIMETHYL-, (Z)-, 3-HEXENE, 2,2-DIMETHYL-, (E)-","3-Hexene, 2,2-dimethyl-",?,22179|22180,DTXSID9062853,CCC=CC(C)(C)C,"InChI=1S/C8H16/c1-5-6-7-8(2,3)4/h6-7H,5H2,1-4H3/b7-6+",JPLZSSHKQZJYTJ-VOTSOKGWSA-N,?,103.15,103203
103207,691-83-8,691-83-8,CC(=CC(=O)OCC)C(=O)OCC,2-Methyl-but-2-enedioic acid diethyl ester,PUBCHEM_54520939,C9H14O4,22182,DTXSID60711923,CC(=CC(=O)OCC)C(=O)OCC,"InChI=1S/C9H14O4/c1-4-12-8(10)6-7(3)9(11)13-5-2/h6H,4-5H2,1-3H3/b7-6-",YPTLFOZCUOHVFO-SREVYHEPSA-N,?,228.0,103207
103208,692-24-0,692-24-0,CC/C=C/C(C)C,"3-HEXENE, 2-METHYL-, (E)-",,,22183,DTXSID90879000,CCC=CC(C)C,"InChI=1S/C7H14/c1-4-5-6-7(2)3/h5-7H,4H2,1-3H3/b6-5+",IQANHWBWTVLDTP-AATRIKPKSA-N,?,85.9,103208
103209,692-42-2,NOCAS_870752,CC[AsH]CC,DIETHYLARSINE,,,22184,DTXSID70870752,CC[AsH]CC,"InChI=1S/C4H11As/c1-3-5-4-2/h5H,3-4H2,1-2H3",UETQTDFFVOJVKY-UHFFFAOYSA-N,?,105.0,103209
103211,692-86-4,692-86-4,CCOC(=O)CCCCCCCCC=C,"10-Undecenoic acid, ethyl ester",Ethyl undec-10-enoate,ethyl undec-10-enoate,22186,DTXSID4044828,CCOC(=O)CCCCCCCCC=C,"InChI=1S/C13H24O2/c1-3-5-6-7-8-9-10-11-12-13(14)15-4-2/h3H,1,4-12H2,2H3",FXNFFCMITPHEIT-UHFFFAOYSA-N,?,264.5,103211
103212,693-02-7,NOCAS_870753,CCCCC#C,1-HEXYNE,,,22187,DTXSID30870753,CCCCC#C,"InChI=1S/C6H10/c1-3-5-6-4-2/h1H,4-6H2,2H3",CGHIBGNXEGJPQZ-UHFFFAOYSA-N,?,71.3,103212
103213,693-07-2,693-07-2,CCSCCCl,2-CHLOROETHYL ETHYL SULFIDE,1-Chloro-2-(ethylthio)ethane,2-chloroethyl ethyl sulfide,22188,DTXSID3027295,CCSCCCl,"InChI=1S/C4H9ClS/c1-2-6-4-3-5/h2-4H2,1H3",GBNVXYXIRHSYEG-UHFFFAOYSA-N,?,156.5,103213
103215,693-16-3,693-16-3,CCCCCCC(C)N,2-Octanamine,2-Octanamine,octan-2-amine,22190,DTXSID4022103,CCCCCCC(C)N,"InChI=1S/C8H19N/c1-3-4-5-6-7-8(2)9/h8H,3-7,9H2,1-2H3",HBXNJMZWGSCKPW-UHFFFAOYSA-N,?,165.0,103215
103216,693-39-0,693-39-0,CCCCCCC[N+]([O-])=O,"HEPTANE, 1-NITRO-",1-Nitroheptane,1-Nitroheptane,22191,DTXSID60219353,CCCCCCC[N+]([O-])=O,"InChI=1S/C7H15NO2/c1-2-3-4-5-6-7-8(9)10/h2-7H2,1H3",UZONFOPDCXAZND-UHFFFAOYSA-N,?,194.0,103216
103217,693-54-9,693-54-9,CCCCCCCCC(C)=O,2-DECANONE,2-Decanone,decan-2-one,22192,DTXSID9022104,CCCCCCCCC(C)=O,"InChI=1S/C10H20O/c1-3-4-5-6-7-8-9-10(2)11/h3-9H2,1-2H3",ZAJNGDIORYACQU-UHFFFAOYSA-N,?,210.0,103217
103219,693-62-9|821-98-7,693-62-9|821-98-7,CCC/C=C/CCCCCC,"4-UNDECENE, (E)-, 4-UNDECENE, (Z)-",,,22194|22366,DTXSID30876614|DTXSID70876613,CCCC=CCCCCCC,"InChI=1S/C11H22/c1-3-5-7-9-11-10-8-6-4-2/h7,9H,3-6,8,10-11H2,1-2H3/b9-7+",JABYJIQOLGWMQW-VQHVLOKHSA-N,?,192.8,103219
103220,693-65-2,693-65-2,CCCCCOCCCCC,DI-N-PENTYLETHER,Pentyl ether,dipentyl ether,22195,DTXSID4022105,CCCCCOCCCCC,"InChI=1S/C10H22O/c1-3-5-7-9-11-10-8-6-4-2/h3-10H2,1-2H3",AOPDRZXCEAKHHW-UHFFFAOYSA-N,?,190.0,103220
103221,693-89-0,NOCAS_870755,CC1CCCC=1,"CYCLOPENTENE, 1-METHYL-",,,22196,DTXSID50870755,CC1CCCC=1,"InChI=1S/C6H10/c1-6-4-2-3-5-6/h4H,2-3,5H2,1H3",ATQUFXWBVZUTKO-UHFFFAOYSA-N,?,75.5,103221
103224,693-98-1,693-98-1,Cc1[nH]cc[n]1,"1H-IMIDAZOLE, 2-METHYL-",2-Methylimidazole,2-methyl-1H-imidazole,22198,DTXSID4022107,Cc1[nH]cc[n]1,"InChI=1S/C4H6N2/c1-4-5-2-3-6-4/h2-3H,1H3,(H,5,6)",LXBGSDVWAMZHDD-UHFFFAOYSA-N,?,267.0,103224
103225,694-05-3,694-05-3,C1C=CCCN1,"PYRIDINE, 1,2,3,6-TETRAHYDRO-","Pyridine, 1,2,3,6-tetrahydro-","1,2,3,6-Tetrahydropyridine",22199,DTXSID0075289,C1C=CCCN1,"InChI=1S/C5H9N/c1-2-4-6-5-3-1/h1-2,6H,3-5H2",FTAHXMZRJCZXDL-UHFFFAOYSA-N,?,108.0,103225
103226,694-17-7,694-17-7,FC1(F)OC1(F)F,Tetrafluoroethylene oxide,"Oxirane, tetrafluoro-","2,2,3,3-tetrafluorooxirane",22200,DTXSID7073228,FC1(F)OC1(F)F,"InChI=1S/C2F4O/c3-1(4)2(5,6)7-1",LOUICXNAWQPGSU-UHFFFAOYSA-N,?,-63.5,103226
103228,694-52-0,694-52-0,Fc1cc[n]cc1,4-Fluoropyridine,4-Fluoropyridine,4-Fluoropyridine,22202,DTXSID50219524,Fc1cc[n]cc1,InChI=1S/C5H4FN/c6-5-1-3-7-4-2-5/h1-4H,TTYVECQWCUJXCS-UHFFFAOYSA-N,?,109.0,103228
103230,694-80-4,694-80-4,Clc1ccccc1Br,2-BROMOCHLOROBENZENE,,,22203,DTXSID30870758,Clc1ccccc1Br,InChI=1S/C6H4BrCl/c7-5-3-1-2-4-6(5)8/h1-4H,QBELEDRHMPMKHP-UHFFFAOYSA-N,?,204.0,103230
103231,694-85-9,694-85-9,CN1C=CC=CC1=O,"2(1H)-PYRIDINONE, 1-METHYL-","2(1H)-Pyridinone, 1-methyl-",1-methylpyridin-2-one,22204,DTXSID8061008,CN1C=CC=CC1=O,"InChI=1S/C6H7NO/c1-7-5-3-2-4-6(7)8/h2-5H,1H3",DVVGIUUJYPYENY-UHFFFAOYSA-N,?,250.0,103231
103233,695-12-5,695-12-5,C=CC1CCCCC1,"CYCLOHEXANE, ETHENYL-",Vinylcyclohexane,Ethenylcyclohexane,22206,DTXSID90219725,C=CC1CCCCC1,"InChI=1S/C8H14/c1-2-8-6-4-3-5-7-8/h2,8H,1,3-7H2",LDLDYFCCDKENPD-UHFFFAOYSA-N,?,128.0,103233
103234,695-98-7,695-98-7,Cc1c[n]c(C)c(C)c1,"PYRIDINE, 2,3,5-TRIMETHYL-","2,3,5-Trimethylpyridine","2,3,5-Trimethylpyridine",22207,DTXSID80219734,Cc1c[n]c(C)c(C)c1,"InChI=1S/C8H11N/c1-6-4-7(2)8(3)9-5-6/h4-5H,1-3H3",GFYHSKONPJXCDE-UHFFFAOYSA-N,?,184.0,103234
103235,696-28-6,696-28-6,Cl[As](Cl)c1ccccc1,DICHLOROPHENYLARSINE,Dichlorophenylarsine,dichloro-phenylarsane,22208,DTXSID7061011,Cl[As](Cl)c1ccccc1,InChI=1S/C6H5AsCl2/c8-7(9)6-4-2-1-3-5-6/h1-5H,UDHDFEGCOJAVRE-UHFFFAOYSA-N,?,255.0,103235
103237,696-30-0,696-30-0,CC(C)c1cc[n]cc1,"Pyridine, 4-(1-methylethyl)-",4-Isopropylpyridine,4-propan-2-ylpyridine,22210,DTXSID7061013,CC(C)c1cc[n]cc1,"InChI=1S/C8H11N/c1-7(2)8-3-5-9-6-4-8/h3-7H,1-2H3",FRGXNJWEDDQLFH-UHFFFAOYSA-N,?,178.0,103237
103238,696-44-6,696-44-6,Cc1cccc(c1)NC,"BENZENAMINE, N,3-DIMETHYL-","Benzenamine, N,3-dimethyl-","N,3-Dimethylaniline",22211,DTXSID2061014,Cc1cccc(c1)NC,"InChI=1S/C8H11N/c1-7-4-3-5-8(6-7)9-2/h3-6,9H,1-2H3",FBGJJTQNZVNEQU-UHFFFAOYSA-N,?,206.5,103238
103239,696-59-3,NOCAS_862378,COC1CCC(O1)OC,"Furan, tetrahydro-2,5-dimethoxy-",,,22212,DTXSID10862378,COC1CCC(O1)OC,"InChI=1S/C6H12O3/c1-7-5-3-4-6(8-2)9-5/h5-6H,3-4H2,1-2H3",GFISDBXSWQMOND-UHFFFAOYSA-N,?,145.7,103239
103241,696-63-9,696-63-9,COc1ccc(S)cc1,4-Methoxythiophenol,"Benzenethiol, p-methoxy-",4-Methoxybenzenethiol,22214,DTXSID60219873,COc1ccc(S)cc1,"InChI=1S/C7H8OS/c1-8-6-2-4-7(9)5-3-6/h2-5,9H,1H3",NIFAOMSJMGEFTQ-UHFFFAOYSA-N,?,228.0,103241
103242,696-82-2,696-82-2,Fc1[n]c(F)cc(F)[n]1,"2,4,6-Trifluoropyrimidine","2,4,6-Trifluoropyrimidine","2,4,6-Trifluoropyrimidine",22215,DTXSID40219876,Fc1[n]c(F)cc(F)[n]1,InChI=1S/C4HF3N2/c5-2-1-3(6)9-4(7)8-2/h1H,NTSYSQNAPGMSIH-UHFFFAOYSA-N,?,98.0,103242
103243,697-11-0,697-11-0,FC1(F)C(F)=C(F)C1(F)F,"CYCLOBUTENE, HEXAFLUORO-","Cyclobutene, hexafluoro-","1,2,3,3,4,4-Hexafluorocyclobutene",22216,DTXSID2073229,FC1(F)C(F)=C(F)C1(F)F,"InChI=1S/C4F6/c5-1-2(6)4(9,10)3(1,7)8",QVHWOZCZUNPZPW-UHFFFAOYSA-N,?,5.5,103243
103245,697-83-6,697-83-6,Fc1[n]c(F)c(Cl)c(F)[n]1,"5-Chloro-2,4,6-trifluoropyrimidine","Pyrimidine, 5-chloro-2,4,6-trifluoro-","5-Chloro-2,4,6-trifluoropyrimidine",22218,DTXSID2061018,Fc1[n]c(F)c(Cl)c(F)[n]1,InChI=1S/C4ClF3N2/c5-1-2(6)9-4(8)10-3(1)7,GOYNRDSJTYLXBU-UHFFFAOYSA-N,?,114.5,103245
103246,697-86-9,697-86-9,Nc1c(Br)cc(Cl)cc1Cl,"2-BROMO-4,6-DICHLOROANILINE","2-Bromo-4,6-dichloroaniline",C6H4BrCl2N,22219,DTXSID00373620,Nc1c(Br)cc(Cl)cc1Cl,"InChI=1S/C6H4BrCl2N/c7-4-1-3(8)2-5(9)6(4)10/h1-2H,10H2",DTPADCOGQUOGHT-UHFFFAOYSA-N,?,273.0,103246
103247,698-01-1,698-01-1,CN(C)c1ccccc1Cl,"o-Chloro-N,N-dimethylaniline","Aniline, o-chloro-N,N-dimethyl-","2-Chloro-N,N-dimethylaniline",22220,DTXSID40220088,CN(C)c1ccccc1Cl,"InChI=1S/C8H10ClN/c1-10(2)8-6-4-3-5-7(8)9/h3-6H,1-2H3",QDCPXCIPVQJVDD-UHFFFAOYSA-N,?,205.0,103247
103249,698-63-5,698-63-5,[O-][N+](=O)c1ccc(C=O)o1,5-NITRO-2-FURALDEHYDE,5-Nitro-2-furaldehyde,5-nitrofuran-2-carbaldehyde,22222,DTXSID30220097,[O-][N+](=O)c1ccc(C=O)o1,InChI=1S/C5H3NO4/c7-3-4-1-2-5(10-4)6(8)9/h1-3H,SXINBFXPADXIEY-UHFFFAOYSA-N,?,228.0,103249
103250,698-69-1,698-69-1,CN(C)c1ccc(Cl)cc1,4-Chloro-(dimethyl)aniline,"Benzenamine, 4-chloro-N,N-dimethyl-","4-Chloro-N,N-dimethylaniline",22223,DTXSID50220099,CN(C)c1ccc(Cl)cc1,"InChI=1S/C8H10ClN/c1-10(2)8-5-3-7(9)4-6-8/h3-6H,1-2H3",IONGEXNDPXANJD-UHFFFAOYSA-N,?,231.0,103250
103251,698-71-5,698-71-5,Cc1cc(CC)cc(O)c1,3-ETHYL-5-METHYLPHENOL,3-Ethyl-5-methylphenol,3-Ethyl-5-methylphenol,22224,DTXSID60220101,Cc1cc(CC)cc(O)c1,"InChI=1S/C9H12O/c1-3-8-4-7(2)5-9(10)6-8/h4-6,10H,3H2,1-2H3",XTCHLXABLZQNNN-UHFFFAOYSA-N,?,235.7,103251
103253,699-08-1,699-08-1,CCOc1ccc(I)cc1,4-Iodophenetole,4-Iodophenetole,C8H9IO,22226,DTXSID40277739,CCOc1ccc(I)cc1,"InChI=1S/C8H9IO/c1-2-10-8-5-3-7(9)4-6-8/h3-6H,2H2,1H3",VSIIHWOJPSSIDI-UHFFFAOYSA-N,?,250.0,103253
103254,699-17-2,699-17-2,CC(=O)CCc1ccco1,"2-Butanone, 4-(2-furanyl)-",4-(2-Furyl)butan-2-one,4-(2-furyl)butan-2-one,22227,DTXSID2052443,CC(=O)CCc1ccco1,"InChI=1S/C8H10O2/c1-7(9)4-5-8-3-2-6-10-8/h2-3,6H,4-5H2,1H3",GGJUJWSDTDBTLX-UHFFFAOYSA-N,?,203.0,103254
103255,699-30-9,699-30-9,O=C1OC(=O)C(F)(F)C1(F)F,"2,5-Furandione, 3,3,4,4-tetrafluorodihydro-","2,5-Furandione, 3,3,4,4-tetrafluorodihydro-","3,3,4,4-tetrafluorooxolane-2,5-dione",22228,DTXSID6061022,O=C1OC(=O)C(F)(F)C1(F)F,"InChI=1S/C4F4O3/c5-3(6)1(9)11-2(10)4(3,7)8",ZLVLNNCBGQYRAB-UHFFFAOYSA-N,?,54.5,103255
103257,700-17-4,700-17-4,Nc1c(F)c(F)cc(F)c1F,"2,3,5,6-TETRAFLUOROANILINE","2,3,5,6-Tetrafluoroaniline","2,3,5,6-TETRAFLUOROANILINE",22230,DTXSID30220259,Nc1c(F)c(F)cc(F)c1F,"InChI=1S/C6H3F4N/c7-2-1-3(8)5(10)6(11)4(2)9/h1H,11H2",SPSWJTZNOXMMMV-UHFFFAOYSA-N,?,158.0,103257
103258,700-75-4,700-75-4,COc1ccccc1N(C)C,"N,N-DIMETHYL O-ANISIDINE","Benzenamine, 2-methoxy-N,N-dimethyl-","2-methoxy-N,N-dimethylaniline",22231,DTXSID20220268,COc1ccccc1N(C)C,"InChI=1S/C9H13NO/c1-10(2)8-6-4-5-7-9(8)11-3/h4-7H,1-3H3",XQFJDFIHJKPUEL-UHFFFAOYSA-N,?,210.0,103258
103259,700-88-9,700-88-9,C1CCCC1c1ccccc1,"BENZENE, CYCLOPENTYL-","Benzene, cyclopentyl-",Cyclopentylbenzene,22232,DTXSID50220271,C1CCCC1c1ccccc1,"InChI=1S/C11H14/c1-2-6-10(7-3-1)11-8-4-5-9-11/h1-3,6-7,11H,4-5,8-9H2",VDIHFNQRHGYISG-UHFFFAOYSA-N,?,219.0,103259
103261,703-61-7,703-61-7,Clc1cc(Cl)[n]c2ccccc12,"2,4-Dichloroquinoline","2,4-Dichloroquinoline",C9H5Cl2N,22234,DTXSID60345843,Clc1cc(Cl)[n]c2ccccc12,InChI=1S/C9H5Cl2N/c10-7-5-9(11)12-8-4-2-1-3-6(7)8/h1-5H,QNBJYUUUYZVIJP-UHFFFAOYSA-N,?,281.0,103261
103262,703-87-7,703-87-7,Cc1c(F)c(F)c(C)c(F)c1F,"2,3,5,6-Tetrafluoro-p-xylene","2,3,5,6-Tetrafluoro-p-xylene","1,2,4,5-Tetrafluoro-3,6-dimethylbenzene",22235,DTXSID30220572,Cc1c(F)c(F)c(C)c(F)c1F,InChI=1S/C8H6F4/c1-3-5(9)7(11)4(2)8(12)6(3)10/h1-2H3,IWKPBYPUIPVYNZ-UHFFFAOYSA-N,?,143.5,103262
103263,704-01-8,704-01-8,CN(C)c1ccccc1N(C)C,"1,2-Benzenediamine, N,N,N',N'-tetramethyl-","1,2-Benzenediamine, N,N,N',N'-tetramethyl-","N,N,N',N'-Tetramethylbenzene-1,2-diamine",22236,DTXSID5061035,CN(C)c1ccccc1N(C)C,"InChI=1S/C10H16N2/c1-11(2)9-7-5-6-8-10(9)12(3)4/h5-8H,1-4H3",CJVYYDCBKKKIPD-UHFFFAOYSA-N,?,215.5,103263
103265,706-78-5,706-78-5,ClC1(Cl)C(Cl)(Cl)C(Cl)=C(Cl)C1(Cl)Cl,OCTACHLOROCYCLOPENTENE,Octachlorocyclopentene,"1,2,3,3,4,4,5,5-octachlorocyclopentene",22238,DTXSID5061037,ClC1(Cl)C(Cl)(Cl)C(Cl)=C(Cl)C1(Cl)Cl,"InChI=1S/C5Cl8/c6-1-2(7)4(10,11)5(12,13)3(1,8)9",DMZRCHJVWAKCAX-UHFFFAOYSA-N,?,283.0,103265
103266,706-79-6,706-79-6,FC1(F)C(F)(F)C(Cl)=C(Cl)C1(F)F,"Cyclopentene, 1,2-dichloro-3,3,4,4,5,5-hexafluor","Cyclopentene, 1,2-dichloro-3,3,4,4,5,5-hexafluoro-","1,2-Dichloro-3,3,4,4,5,5-hexafluorocyclopentene",22239,DTXSID0061038,FC1(F)C(F)(F)C(Cl)=C(Cl)C1(F)F,"InChI=1S/C5Cl2F6/c6-1-2(7)4(10,11)5(12,13)3(1,8)9",ABPBVCKGWWGZDP-UHFFFAOYSA-N,?,90.7,103266
103267,709-98-8,709-98-8,CCC(=O)Nc1cc(Cl)c(Cl)cc1,PROPANIL,Propanil,"N-(3,4-dichlorophenyl)propanamide",22240,DTXSID8022111,CCC(=O)Nc1cc(Cl)c(Cl)cc1,"InChI=1S/C9H9Cl2NO/c1-2-9(13)12-6-3-4-7(10)8(11)5-6/h3-5H,2H2,1H3,(H,12,13)",LFULEKSKNZEWOE-UHFFFAOYSA-N,?,351.0,103267
103269,713-36-0,27776-01-8,Cc1ccccc1Cc1ccccc1,"Benzene, 1-methyl-2-(phenylmethyl)-",Benzyltoluene,1-benzyl-2-methylbenzene,22242,DTXSID8041666,Cc1ccccc1Cc1ccccc1,"InChI=1S/C14H14/c1-12-7-5-6-10-14(12)11-13-8-3-2-4-9-13/h2-10H,11H2,1H3",PQTAUFTUHHRKSS-UHFFFAOYSA-N,?,280.5,103269
103271,717-74-8,717-74-8,CC(C)c1cc(cc(c1)C(C)C)C(C)C,"1,3,5-TRIISOPROPYLBENZENE","1,3,5-Triisopropylbenzene","1,3,5-tri(propan-2-yl)benzene",22243,DTXSID4041232,CC(C)c1cc(cc(c1)C(C)C)C(C)C,"InChI=1S/C15H24/c1-10(2)13-7-14(11(3)4)9-15(8-13)12(5)6/h7-12H,1-6H3",VUMCUSHVMYIRMB-UHFFFAOYSA-N,?,238.0,103271
103272,718-64-9,718-64-9,OC(c1ccccc1)(C(F)(F)F)C(F)(F)F,"2-PROPANOL,2-PHHENYL-1,1,1,3,3,3-HEXAFLUORO","Benzenemethanol, .alpha.,.alpha.-bis(trifluoromethyl)-","1,1,1,3,3,3-hexafluoro-2-phenylpropan-2-ol",22244,DTXSID3061051,OC(c1ccccc1)(C(F)(F)F)C(F)(F)F,"InChI=1S/C9H6F6O/c10-8(11,12)7(16,9(13,14)15)6-4-2-1-3-5-6/h1-5,16H",IZPIZCAYJQCTNG-UHFFFAOYSA-N,?,160.0,103272
103274,732-26-3,732-26-3,CC(C)(C)c1cc(c(O)c(c1)C(C)(C)C)C(C)(C)C,"2,4,6-TRI(TERT-BUTYL)PHENOL","2,4,6-Tris(tert-butyl)phenol","2,4,6-tri-tert-butylphenol",22246,DTXSID2021311,CC(C)(C)c1cc(c(O)c(c1)C(C)(C)C)C(C)(C)C,"InChI=1S/C18H30O/c1-16(2,3)12-10-13(17(4,5)6)15(19)14(11-12)18(7,8)9/h10-11,19H,1-9H3",PFEFOYRSMXVNEL-UHFFFAOYSA-N,?,278.0,103274