ChemID,source_casrn,CAS,SMILES,NAME,preferred_name,iupac,MPID,dsstox_substance_id,Canonical_QSARr,InChI_Code_QSARr,InChI Key_QSARr,Salt_Solvent,BP,ID
105140,7335-26-4,7335-26-4,COc1ccccc1C(=O)OCC,"Benzoic acid, 2-methoxy-, ethyl ester",Ethyl 2-methoxybenzoate,ethyl 2-methoxybenzoate,24019,DTXSID9047126,COc1ccccc1C(=O)OCC,"InChI=1S/C10H12O3/c1-3-13-10(11)8-6-4-5-7-9(8)12-2/h4-7H,3H2,1-2H3",FNODWEPAWIJGPM-UHFFFAOYSA-N,?,261.0,105140
105144,7359-72-0,7359-72-0,Cc1ccc(Cl)c(Cl)c1Cl,"2,3,4-TRICHLOROTOLUENE","2,3,4-Trichlorotoluene","1,2,3-trichloro-4-methylbenzene",24023,DTXSID60223778,Cc1ccc(Cl)c(Cl)c1Cl,"InChI=1S/C7H5Cl3/c1-4-2-3-5(8)7(10)6(4)9/h2-3H,1H3",LHOGNQZQKDZOBP-UHFFFAOYSA-N,?,244.0,105144
105148,7378-99-6,7378-99-6,CCCCCCCCN(C)C,Octyldimethylamine,"N,N-Dimethyloctylamine","N,N-dimethyloctan-1-amine",24027,DTXSID2036299,CCCCCCCCN(C)C,"InChI=1S/C10H23N/c1-4-5-6-7-8-9-10-11(2)3/h4-10H2,1-3H3",UQKAOOAFEFCDGT-UHFFFAOYSA-N,?,191.0,105148
105152,7385-78-6,NOCAS_871189,CC(C)C(C)C=C,"1-PENTENE, 3,4-DIMETHYL-",,,24031,DTXSID30871189,CC(C)C(C)C=C,"InChI=1S/C7H14/c1-5-7(4)6(2)3/h5-7H,1H2,2-4H3",WFHXQNMTMDKVJG-UHFFFAOYSA-N,?,80.8,105152
105157,7417-48-3,NOCAS_871192,CCC(C)=C=C,"3-METHYL-1,2-PENTADIENE",,,24035,DTXSID60871192,CCC(C)=C=C,"InChI=1S/C6H10/c1-4-6(3)5-2/h1,5H2,2-3H3",INFFCVIZNSUFGK-UHFFFAOYSA-N,?,70.0,105157
105165,7515-80-2,7515-80-2,CC(C)NC(C)(C)C,"2-PROPANAMINE, 2-METHYL-N-(1-METHYLETHYL)-","2-Propanamine, 2-methyl-N-(1-methylethyl)-",2-methyl-N-propan-2-ylpropan-2-amine,24039,DTXSID8064729,CC(C)NC(C)(C)C,"InChI=1S/C7H17N/c1-6(2)8-7(3,4)5/h6,8H,1-5H3",ZWXQPERWRDHCMZ-UHFFFAOYSA-N,?,98.0,105165
105169,7554-65-6,7554-65-6,Cc1c[nH][n]c1,"1H-PYRAZOLE, 4-METHYL-",4-Methylpyrazole,4-methyl-1H-pyrazole,24043,DTXSID3040649,Cc1c[nH][n]c1,"InChI=1S/C4H6N2/c1-4-2-5-6-3-4/h2-3H,1H3,(H,5,6)",RIKMMFOAQPJVMX-UHFFFAOYSA-N,?,206.0,105169
105173,7581-97-7,7581-97-7,CC(Cl)C(C)Cl,"2,3-DICHLOROBUTANE","2,3-Dichlorobutane","2,3-dichlorobutane",24047,DTXSID8021565,CC(Cl)C(C)Cl,"InChI=1S/C4H8Cl2/c1-3(5)4(2)6/h3-4H,1-2H3",RMISVOPUIFJTEO-UHFFFAOYSA-N,?,118.0,105173
105181,7661-55-4,7661-55-4,Cc1cccc2[n]cccc21,"QUINOLINE, 5-METHYL-","Quinoline, 5-methyl-",5-Methylquinoline,24053,DTXSID40227431,Cc1cccc2[n]cccc21,"InChI=1S/C10H9N/c1-8-4-2-6-10-9(8)5-3-7-11-10/h2-7H,1H3",LMYVCXSKCQSIEQ-UHFFFAOYSA-N,?,262.7,105181
105192,7778-85-0,NOCAS_871197,COC(C)COC,"1,2-DIMETHOXYPROPANE",,,24057,DTXSID60871197,COC(C)COC,"InChI=1S/C5H12O2/c1-5(7-3)4-6-2/h5H,4H2,1-3H3",LEEANUDEDHYDTG-UHFFFAOYSA-N,?,96.0,105192
105198,7787-20-4,4695-62-9,CC1(C)[C@H]2C[C@](C)(CC2)C1=O,(1R)-(-)-Fenchone,d-Fenchone,C10H16O,24063,DTXSID60858862,CC1(C)C2CC(C)(CC2)C1=O,"InChI=1S/C10H16O/c1-9(2)7-4-5-10(3,6-7)8(9)11/h7H,4-6H2,1-3H3",LHXDLQBQYFFVNW-UHFFFAOYSA-N,?,193.0,105198
105203,10024-74-5,56210-72-1,C[C@H](N[C@@H](C)c1ccccc1)c1ccccc1,Bis(alpha-methylbenzyl)amine,(-)-Bis[(S)-1-phenylethyl]amine,C16H19N,24067,DTXSID00426403,CC(NC(C)c1ccccc1)c1ccccc1,"InChI=1S/C16H19N/c1-13(15-9-5-3-6-10-15)17-14(2)16-11-7-4-8-12-16/h3-14,17H,1-2H3",NXLACVVNHYIYJN-UHFFFAOYSA-N,?,296.5,105203
105207,10042-59-8,10042-59-8,CCCC(CO)CCCCC,"1-Heptanol, 2-propyl-",2-Propyl-1-heptanol,2-propylheptan-1-ol,24071,DTXSID9029302,CCCC(CO)CCCCC,"InChI=1S/C10H22O/c1-3-5-6-8-10(9-11)7-4-2/h10-11H,3-9H2,1-2H3",YLQLIQIAXYRMDL-UHFFFAOYSA-N,?,217.5,105207
105213,10152-76-8,10152-76-8,CSCC=C,"1-Propene, 3-(methylthio)-","1-Propene, 3-(methylthio)-",3-methylsulfanylprop-1-ene,24077,DTXSID9064976,CSCC=C,"InChI=1S/C4H8S/c1-3-4-5-2/h3H,1,4H2,2H3",NVLPQIPTCCLBEU-UHFFFAOYSA-N,?,92.0,105213
105217,10203-28-8,NOCAS_864232,CCCCCCCCCCC(C)O,2-DODECANOL,,,24081,DTXSID70864232,CCCCCCCCCCC(C)O,"InChI=1S/C12H26O/c1-3-4-5-6-7-8-9-10-11-12(2)13/h12-13H,3-11H2,1-2H3",XSWSEQPWKOWORN-UHFFFAOYSA-N,?,252.0,105217
105221,10259-22-0,10259-22-0,COc1cc(ccc1)C(=O)OCC,"BENZOIC ACID, 3-METHOXY-, ETHYL ESTER",Ethyl m-anisate,ethyl 3-methoxybenzoate,24085,DTXSID40145343,COc1cc(ccc1)C(=O)OCC,"InChI=1S/C10H12O3/c1-3-13-10(11)8-5-4-6-9(7-8)12-2/h4-7H,3H2,1-2H3",GSQLMBQLTPEPHD-UHFFFAOYSA-N,?,260.5,105221
105227,10316-00-4,10316-00-4,C(c1ccccc1)N1CCOCC1,4-BENZYLMORPHOLINE,4-benzylmorpholine,C11H15NO,24089,DTXSID90290317,C(c1ccccc1)N1CCOCC1,"InChI=1S/C11H15NO/c1-2-4-11(5-3-1)10-12-6-8-13-9-7-12/h1-5H,6-10H2",GVWBJJLCTWNTRU-UHFFFAOYSA-N,?,260.5,105227
105231,10420-90-3,10420-90-3,C=CC=CC#C,"1,3-HEXADIEN-5-YNE","1,3-Hexadien-5-yne",,24093,DTXSID0074689,C=CC=CC#C,"InChI=1S/C6H6/c1-3-5-6-4-2/h1,4-6H,2H2/b6-5+",OGWJYLKDZYZYBA-AATRIKPKSA-N,?,83.5,105231
105236,10487-71-5,10487-71-5,CC=CC(=O)Cl,2-Butenoyl chloride,2-Butenoyl chloride,,24098,DTXSID2065096,CC=CC(=O)Cl,"InChI=1S/C4H5ClO/c1-2-3-4(5)6/h2-3H,1H3/b3-2+",RJUIDDKTATZJFE-NSCUHMNNSA-N,?,124.5,105236
105242,10574-17-1,NOCAS_870421,CCC(C)Oc1ccccc1,"BENZENE, (1-METHYLPROPOXY)-",,,24104,DTXSID40870421,CCC(C)Oc1ccccc1,"InChI=1S/C10H14O/c1-3-9(2)11-10-7-5-4-6-8-10/h4-9H,3H2,1-2H3",VJQIPKNMASGCOC-UHFFFAOYSA-N,?,194.5,105242
105246,10595-95-6,10595-95-6,CCN(C)N=O,N-METHYL-N-NITROSOETHAMINE,N-Nitroso-N-methylethylamine,N-methyl-N-nitrosoethanamine,24108,DTXSID6021036,CCN(C)N=O,"InChI=1S/C3H8N2O/c1-3-5(2)4-6/h3H2,1-2H3",RTDCJKARQCRONF-UHFFFAOYSA-N,?,170.0,105246
105255,13019-20-0,13019-20-0,CCCCC(=O)C(C)C,"3-HEPTANONE, 2-METHYL-","3-Heptanone, 2-methyl-",2-Methylheptan-3-one,24112,DTXSID3073395,CCCCC(=O)C(C)C,"InChI=1S/C8H16O/c1-4-5-6-8(9)7(2)3/h7H,4-6H2,1-3H3",XYYMFUCZDNNGFS-UHFFFAOYSA-N,?,158.0,105255
105260,13057-17-5,13057-17-5,COCBr,"Methane, bromomethoxy-","Methane, bromomethoxy-",bromo-methoxymethane,24117,DTXSID6065341,COCBr,"InChI=1S/C2H5BrO/c1-4-2-3/h2H2,1H3",JAMFGQBENKSWOF-UHFFFAOYSA-N,?,87.0,105260
105264,13129-23-2,NOCAS_871954,COC(=O)c1cocc1,"3-FURANCARBOXYLIC ACID, METHYL ESTER",,,24121,DTXSID00871954,COC(=O)c1cocc1,"InChI=1S/C6H6O3/c1-8-6(7)5-2-3-9-4-5/h2-4H,1H3",ZKHQSQYLKSSYIP-UHFFFAOYSA-N,?,160.0,105264
105268,13195-80-7,13195-80-7,CC=C(Br)Br,"Propene, 1,1-dibromo-","1-Propene, 1,1-dibromo-","1,1-dibromoprop-1-ene",24125,DTXSID8065377,CC=C(Br)Br,"InChI=1S/C3H4Br2/c1-2-3(4)5/h2H,1H3",HTEJLXYOJZOXKM-UHFFFAOYSA-N,?,125.0,105268
105274,13351-73-0,13351-73-0,C[n]1[n][n]c2ccccc12,1-METHYLBENZOTRIAZOLE,"1H-Benzotriazole, 1-methyl-",1-Methylbenzotriazole,24131,DTXSID40158150,C[n]1[n][n]c2ccccc12,"InChI=1S/C7H7N3/c1-10-7-5-3-2-4-6(7)8-9-10/h2-5H,1H3",HXQHRUJXQJEGER-UHFFFAOYSA-N,?,270.5,105274
105280,13417-43-1,NOCAS_871215,CC=C(C)CCl,"2-BUTENE, 1-CHLORO-2-METHYL-",,,24136,DTXSID80871215,CC=C(C)CCl,"InChI=1S/C5H9Cl/c1-3-5(2)4-6/h3H,4H2,1-2H3/b5-3+",ZAJKEDQTROWDDD-HWKANZROSA-N,?,110.0,105280
105284,13475-78-0,13475-78-0,CC(C)CCC(CC)CC,"HEPTANE, 5-ETHYL-2-METHYL-","Heptane, 5-ethyl-2-methyl-",5-ETHYL-2-METHYLHEPTANE,24140,DTXSID40158933,CC(C)CCC(CC)CC,"InChI=1S/C10H22/c1-5-10(6-2)8-7-9(3)4/h9-10H,5-8H2,1-4H3",DGEMPTLPTFNEHJ-UHFFFAOYSA-N,?,159.7,105284
105288,13481-70-4,13481-70-4,Cc1ccc(Cl)c(O)c1Cl,"2,6-Dichloro-3-methyl-phenol","2,6-Dichloro-m-cresol","2,6-Dichloro-3-methylphenol",24144,DTXSID30158962,Cc1ccc(Cl)c(O)c1Cl,"InChI=1S/C7H6Cl2O/c1-4-2-3-5(8)7(10)6(4)9/h2-3,10H,1H3",SXHLRMKATYCFRY-UHFFFAOYSA-N,?,237.0,105288
105292,13602-13-6,NOCAS_871222,CC=C(Cl)CCl,"1,2-Dichloro-but-2-ene",,,24148,DTXSID50871222,CC=C(Cl)CCl,"InChI=1S/C4H6Cl2/c1-2-4(6)3-5/h2H,3H2,1H3/b4-2-",VOGHDWQJCXXBMH-RQOWECAXSA-N,?,130.5,105292
105296,13721-54-5,13721-54-5,CCC#CC=C,1-HEXEN-3-YNE,1-Hexen-3-yne,hex-1-en-3-yne,24152,DTXSID10160109,CCC#CC=C,"InChI=1S/C6H8/c1-3-5-6-4-2/h3H,1,4H2,2H3",BYSRUWKGUGERFI-UHFFFAOYSA-N,?,85.0,105296
105300,13898-73-2,NOCAS_871225,CC1CC(CCC=1)C(C)=C,"CYCLOHEXENE, 1-METHYL-5-(1-METHYLETHENYL)-",,,24156,DTXSID30871225,CC1CC(CCC=1)C(C)=C,"InChI=1S/C10H16/c1-8(2)10-6-4-5-9(3)7-10/h5,10H,1,4,6-7H2,2-3H3",JWQKMEKSFPNAIB-UHFFFAOYSA-N,?,176.0,105300
105305,13984-57-1,13984-57-1,CC(=O)CCCC(=O)OCC,"Hexanoic acid, 5-oxo-, ethyl ester",Ethyl 5-oxohexanoate,,24161,DTXSID6065688,CC(=O)CCCC(=O)OCC,"InChI=1S/C8H14O3/c1-3-11-8(10)6-4-5-7(2)9/h3-6H2,1-2H3",MGPSIDGTLFKDEY-UHFFFAOYSA-N,?,221.5,105305
105309,14077-58-8,14077-58-8,CCOCC(=O)Cl,Ethoxy-acetyl chloride,Ethoxyacetyl chloride,2-ethoxyacetyl chloride,24165,DTXSID50161473,CCOCC(=O)Cl,"InChI=1S/C4H7ClO2/c1-2-7-3-4(5)6/h2-3H2,1H3",ZPMWWAIBJJFPPQ-UHFFFAOYSA-N,?,125.0,105309
105313,14287-61-7,27855-05-6,CC(C)[C@@H](C)C(O)=O,"2,3-DIMETHYLBUTYRIC ACID",PUBCHEM_16126808,C6H12O2,24169,DTXSID10583132,CC(C)C(C)C(O)=O,"InChI=1S/C6H12O2/c1-4(2)5(3)6(7)8/h4-5H,1-3H3,(H,7,8)",XFOASZQZPWEJAA-UHFFFAOYSA-N,?,191.7,105313
105317,14476-30-3,14476-30-3,CC(Br)(Br)CBr,"Propane, 1,2,2-tribromo-","Propane, 1,2,2-tribromo-","1,2,2-Tribromopropane",24173,DTXSID0065775,CC(Br)(Br)CBr,"InChI=1S/C3H5Br3/c1-3(5,6)2-4/h2H2,1H3",IELJYJRPJJILHQ-UHFFFAOYSA-N,?,190.5,105317
105321,14602-62-1,NOCAS_871230,CC(Br)C(Br)Br,"Propane, 1,1,2-tribromo-",,,24177,DTXSID80871230,CC(Br)C(Br)Br,"InChI=1S/C3H5Br3/c1-2(4)3(5)6/h2-3H,1H3",ZLOLQHBVMYXNHX-UHFFFAOYSA-N,?,200.5,105321
105326,14685-29-1,14685-29-1,C[Si]1(CCCC)O[Si](C)(CCCC)O[Si](C)(CCCC)O[Si](C)(CCCC)O1,TetraBu-tetraMe-tetroxatetrasilocane,"2,4,6,8-Tetrabutyl-2,4,6,8-tetramethylcyclotetrasiloxane","2,4,6,8-Tetrabutyl-2,4,6,8-tetramethyl-1,3,5,7,2,4,6,8-tetraoxatetrasilocane",24182,DTXSID80163526,C[Si]1(CCCC)O[Si](C)(CCCC)O[Si](C)(CCCC)O[Si](C)(CCCC)O1,"InChI=1S/C20H48O4Si4/c1-9-13-17-25(5)21-26(6,18-14-10-2)23-28(8,20-16-12-4)24-27(7,22-25)19-15-11-3/h9-20H2,1-8H3",WRMMUMWFPNLNGA-UHFFFAOYSA-N,?,291.0,105326
105332,14804-32-1,14804-32-1,CCc1ccccc1OC,2-ETHYLANISOLE,"Benzene, 1-ethyl-2-methoxy-",1-ethyl-2-methoxybenzene,24186,DTXSID10163872,CCc1ccccc1OC,"InChI=1S/C9H12O/c1-3-8-6-4-5-7-9(8)10-2/h4-7H,3H2,1-2H3",NIEHEMAZEULEKB-UHFFFAOYSA-N,?,187.0,105332
105339,14938-35-3,14938-35-3,CCCCCc1ccc(O)cc1,4-PENTYLPHENOL,4-Pentylphenol,4-pentylphenol,24191,DTXSID9044164,CCCCCc1ccc(O)cc1,"InChI=1S/C11H16O/c1-2-3-4-5-10-6-8-11(12)9-7-10/h6-9,12H,2-5H2,1H3",ZNPSUQQXTRRSBM-UHFFFAOYSA-N,?,250.5,105339
105343,15104-61-7,15104-61-7,ClC(C(Cl)Cl)C(Cl)Cl,"1,1,2,3,3-PENTACHLOROPROPANE","Propane, 1,1,2,3,3-pentachloro-","1,1,2,3,3-PENTACHLOROPROPANE",24195,DTXSID20164698,ClC(C(Cl)Cl)C(Cl)Cl,InChI=1S/C3H3Cl5/c4-1(2(5)6)3(7)8/h1-3H,PANVCEBTPSTUEL-UHFFFAOYSA-N,?,199.0,105343
105348,15268-49-2,15268-49-2,CCCOCC(C)C,"PROPANE, 2-METHYL-1-PROPOXY-","Propane, 2-methyl-1-propoxy-",2-methyl-1-propoxypropane,24199,DTXSID20165100,CCCOCC(C)C,"InChI=1S/C7H16O/c1-4-5-8-6-7(2)3/h7H,4-6H2,1-3H3",NKBWHRMIYKMDDN-UHFFFAOYSA-N,?,107.0,105348
105353,15606-95-8,15606-95-8,CCO[As](=O)(OCC)OCC,"Arsenic acid, triethyl ester",Triethyl arsenate,1-diethoxyarsoryloxyethane,24203,DTXSID20166036,CCO[As](=O)(OCC)OCC,"InChI=1S/C6H15AsO4/c1-4-9-7(8,10-5-2)11-6-3/h4-6H2,1-3H3",MGRFDZWQSJNJQP-UHFFFAOYSA-N,?,236.5,105353
105357,15707-24-1,15707-24-1,CCc1[n]cc[n]c1CC,"PYRAZINE, 2,3-DIETHYL-","2,3-Diethylpyrazine","2,3-diethylpyrazine",24207,DTXSID6047101,CCc1[n]cc[n]c1CC,"InChI=1S/C8H12N2/c1-3-7-8(4-2)10-6-5-9-7/h5-6H,3-4H2,1-2H3",GZXXANJCCWGCSV-UHFFFAOYSA-N,?,181.0,105357
105361,15869-86-0,15869-86-0,CCC(CCC)CCCC,"OCTANE, 4-ETHYL-",,,24211,DTXSID10871243,CCC(CCC)CCCC,"InChI=1S/C10H22/c1-4-7-9-10(6-3)8-5-2/h10H,4-9H2,1-3H3",NRJUFUBKIFIKFI-UHFFFAOYSA-N,?,163.7,105361
105365,15869-93-9,15869-93-9,CC(CCC)CC(C)CC,"OCTANE, 3,5-DIMETHYL-",,,24215,DTXSID90871246,CC(CCC)CC(C)CC,"InChI=1S/C10H22/c1-5-7-10(4)8-9(3)6-2/h9-10H,5-8H2,1-4H3",VRHRGVJOUHJULC-UHFFFAOYSA-N,?,159.4,105365
105369,15870-10-7,15870-10-7,CCCCCC(C)=C,2-METHYL-1-HEPTENE,"1-Heptene, 2-methyl-",2-Methylhept-1-ene,24219,DTXSID0074009,CCCCCC(C)=C,"InChI=1S/C8H16/c1-4-5-6-7-8(2)3/h2,4-7H2,1,3H3",RCBGGJURENJHKV-UHFFFAOYSA-N,?,119.3,105369
105374,15953-73-8,15953-73-8,Cc1[n][nH]c(C)c1Cl,"4-Chloro-3,5-dimethyl-1H-pyrazole","4-chloro-3,5-dimethyl-1H-pyrazole",C5H7ClN2,24223,DTXSID20350099,Cc1[n][nH]c(C)c1Cl,"InChI=1S/C5H7ClN2/c1-3-5(6)4(2)8-7-3/h1-2H3,(H,7,8)",JGTUBTJLRQIMAB-UHFFFAOYSA-N,?,221.0,105374
105378,16066-09-4,NOCAS_871252,C[Si](C)(C)O[SiH](C)O[SiH](C)O[Si](C)(C)C,"Tetrasiloxane, 1,1,1,3,5,7,7,7-octamethyl-",,,24227,DTXSID00871252,C[Si](C)(C)O[SiH](C)O[SiH](C)O[Si](C)(C)C,"InChI=1S/C8H26O3Si4/c1-12(10-14(3,4)5)9-13(2)11-15(6,7)8/h12-13H,1-8H3",LBPUHXCOWXUVCE-UHFFFAOYSA-N,?,170.0,105378
105384,16245-79-7,16245-79-7,CCCCCCCCc1ccc(N)cc1,4-Octylaniline,4-Octylaniline,4-octylaniline,24233,DTXSID6022266,CCCCCCCCc1ccc(N)cc1,"InChI=1S/C14H23N/c1-2-3-4-5-6-7-8-13-9-11-14(15)12-10-13/h9-12H,2-8,15H2,1H3",ORKQJTBYQZITLA-UHFFFAOYSA-N,?,310.0,105384
105390,16452-01-0,16452-01-0,Cc1ccc(N)cc1OC,5-AMINO-2-METHYL-ANISOL,3-Methoxy-4-methylaniline,3-methoxy-4-methylaniline,24239,DTXSID9024855,Cc1ccc(N)cc1OC,"InChI=1S/C8H11NO/c1-6-3-4-7(9)5-8(6)10-2/h3-5H,9H2,1-2H3",ONADZNBSLRAJFW-UHFFFAOYSA-N,?,251.0,105390
105396,16580-24-8,NOCAS_871259,CC(C)C1CC(C)CCC1,"CYCLOHEXANE, 1-METHYL-3-(1-METHYLETHYL)-",,,24245,DTXSID20871259,CC(C)C1CC(C)CCC1,"InChI=1S/C10H20/c1-8(2)10-6-4-5-9(3)7-10/h8-10H,4-7H2,1-3H3",QRDCBPPMQOPHOU-UHFFFAOYSA-N,?,166.5,105396
105400,16745-94-1,NOCAS_871260,CCC(C)C(C)C=C,"1-HEXENE, 3,4-DIMETHYL-",,,24249,DTXSID30871260,CCC(C)C(C)C=C,"InChI=1S/C8H16/c1-5-7(3)8(4)6-2/h5,7-8H,1,6H2,2-4H3",OWWRMMIWAOBBFK-UHFFFAOYSA-N,?,112.0,105400
105404,16747-28-7,16747-28-7,CCCC(C)(C)C(C)C,"2,3,3-TRIMETHYLHEXANE","2,3,3-Trimethylhexane","2,3,3-TRIMETHYLHEXANE",24253,DTXSID30168288,CCCC(C)(C)C(C)C,"InChI=1S/C9H20/c1-6-7-9(4,5)8(2)3/h8H,6-7H2,1-5H3",DJYSEQMMCZAKGT-UHFFFAOYSA-N,?,137.7,105404
105408,16747-33-4,16747-33-4,CC(C)C(C)(CC)CC,"PENTANE, 3-ETHYL-2,3-DIMETHYL-","Pentane, 3-ethyl-2,3-dimethyl-",,24257,DTXSID60168291,CC(C)C(C)(CC)CC,"InChI=1S/C9H20/c1-6-9(5,7-2)8(3)4/h8H,6-7H2,1-5H3",MMASVVOQIKCFJZ-UHFFFAOYSA-N,?,144.7,105408
105412,16747-45-8,NOCAS_871266,CC(C(C)(C)C)C(C)(C)C,"2,2,3,4,4-PENTAMETHYLPENTANE",,,24261,DTXSID90871266,CC(C(C)(C)C)C(C)(C)C,"InChI=1S/C10H22/c1-8(9(2,3)4)10(5,6)7/h8H,1-7H3",OWFKEHICSVOVAC-UHFFFAOYSA-N,?,159.3,105412
105416,16766-30-6,16766-30-6,COc1cc(Cl)ccc1O,4-Chloroguaiacol,"Phenol, 4-chloro-2-methoxy-",4-Chloro-2-methoxyphenol,24265,DTXSID0074974,COc1cc(Cl)ccc1O,"InChI=1S/C7H7ClO2/c1-10-7-4-5(8)2-3-6(7)9/h2-4,9H,1H3",FVZQMMMRFNURSH-UHFFFAOYSA-N,?,241.0,105416
105421,16957-70-3,3142-72-1,CC(=CCC)C(O)=O,"2-Pentenoic acid, 2-methyl-, (E)-",2-Methylpent-2-en-1-oic acid,2-methylpent-2-enoic acid,24269,DTXSID0051998,CC(=CCC)C(O)=O,"InChI=1S/C6H10O2/c1-3-4-5(2)6(7)8/h4H,3H2,1-2H3,(H,7,8)/b5-4-",JJYWRQLLQAKNAD-PLNGDYQASA-N,?,214.0,105421
105425,17059-52-8,17059-52-8,Cc1cccc2ccoc21,"BENZOFURAN, 7-METHYL-",7-Methylbenzofuran,7-methyl-1-benzofuran,24273,DTXSID60168892,Cc1cccc2ccoc21,"InChI=1S/C9H8O/c1-7-3-2-4-8-5-6-10-9(7)8/h2-6H,1H3",PHQXPPBIJBCIMI-UHFFFAOYSA-N,?,190.5,105425
105430,17094-21-2,NOCAS_871972,CC(=O)C(C)C(=O)OC,"BUTANOIC ACID, 2-METHYL-3-OXO-, METHYL ESTER",,,24278,DTXSID80871972,CC(=O)C(C)C(=O)OC,"InChI=1S/C6H10O3/c1-4(5(2)7)6(8)9-3/h4H,1-3H3",NDTWZHURUDSPQV-UHFFFAOYSA-N,?,177.4,105430
105434,17302-01-1,17302-01-1,CCCCC(C)(CC)CC,3-ETHYL-3-METHYLHEPTANE,3-Ethyl-3-methylheptane,3-Ethyl-3-methylheptane,24282,DTXSID10169495,CCCCC(C)(CC)CC,"InChI=1S/C10H22/c1-5-8-9-10(4,6-2)7-3/h5-9H2,1-4H3",HSOMNBKXPGCNBH-UHFFFAOYSA-N,?,163.8,105434
105438,17348-59-3,17348-59-3,CC(C)OC(C)(C)C,ISOPROPYL T-BUTYL ETHER,tert-Butyl isopropyl ether,tert-butyl isopropyl ether,24286,DTXSID4051792,CC(C)OC(C)(C)C,"InChI=1S/C7H16O/c1-6(2)8-7(3,4)5/h6H,1-5H3",HNFSPSWQNZVCTB-UHFFFAOYSA-N,?,87.6,105438
105442,17534-15-5,NOCAS_871274,Sc1ccccc1S,"Benzene-1,2-dithiol",,,24290,DTXSID20871274,Sc1ccccc1S,"InChI=1S/C6H6S2/c7-5-3-1-2-4-6(5)8/h1-4,7-8H",JRNVQLOKVMWBFR-UHFFFAOYSA-N,?,238.5,105442
105446,17696-37-6,17696-37-6,Cc1cc(c(C)cc1O)C(C)(C)C,"Phenol, 4-(1,1-dimethylethyl)-2,5-dimethyl-","Phenol, 4-(1,1-dimethylethyl)-2,5-dimethyl-","4-tert-butyl-2,5-dimethylphenol",24294,DTXSID5066247,Cc1cc(c(C)cc1O)C(C)(C)C,"InChI=1S/C12H18O/c1-8-7-11(13)9(2)6-10(8)12(3,4)5/h6-7,13H,1-5H3",ZSPDNAYHQYQUPC-UHFFFAOYSA-N,?,264.0,105446
105450,17788-00-0,17788-00-0,Cc1c(Cl)c(O)ccc1Cl,"Phenol, 2,4-dichloro-3-methyl-","Phenol, 2,4-dichloro-3-methyl-","2,4-Dichloro-3-methylphenol",24298,DTXSID8066264,Cc1c(Cl)c(O)ccc1Cl,"InChI=1S/C7H6Cl2O/c1-4-5(8)2-3-6(10)7(4)9/h2-3,10H,1H3",GIXSFSVVKULPEK-UHFFFAOYSA-N,?,236.0,105450
105454,17952-11-3,17952-11-3,CCCCCOCC,"PENTANE, 1-ETHOXY-","Ether, ethyl pentyl",1-Ethoxypentane,24302,DTXSID90170822,CCCCCOCC,"InChI=1S/C7H16O/c1-3-5-6-7-8-4-2/h3-7H2,1-2H3",VDMXPMYSWFDBJB-UHFFFAOYSA-N,?,117.6,105454
105459,18243-41-9,18243-41-9,C[Si](C)(C)CBr,"SILANE, (BROMOMETHYL)TRIMETHYL-","Silane, (bromomethyl)trimethyl-",bromomethyl-trimethylsilane,24307,DTXSID3066344,C[Si](C)(C)CBr,"InChI=1S/C4H11BrSi/c1-6(2,3)4-5/h4H2,1-3H3",ACAUYCZBWABOLI-UHFFFAOYSA-N,?,116.5,105459
105464,18368-63-3,18368-63-3,Cc1cccc(Cl)[n]1,6-Chloro-2-picoline,6-Chloro-2-picoline,2-chloro-6-methylpyridine,24311,DTXSID0022272,Cc1cccc(Cl)[n]1,"InChI=1S/C6H6ClN/c1-5-3-2-4-6(7)8-5/h2-4H,1H3",GXZDYRYYNXYPMQ-UHFFFAOYSA-N,?,183.5,105464
105469,18495-30-2,NOCAS_871284,ClC(Cl)C(Cl)CCl,"1,1,2,3-TETRACHLOROPROPANE",,,24315,DTXSID70871284,ClC(Cl)C(Cl)CCl,"InChI=1S/C3H4Cl4/c4-1-2(5)3(6)7/h2-3H,1H2",BUQMVYQMVLAYRU-UHFFFAOYSA-N,?,179.5,105469
105473,18748-27-1,18748-27-1,CC(C)COS(=O)OCC(C)C,"SULFUROUS ACID, BIS(2-METHYLPROPYL) ESTER","Sulfurous acid, bis(2-methylpropyl) ester",C8H18O3S,24319,DTXSID30337997,CC(C)COS(=O)OCC(C)C,"InChI=1S/C8H18O3S/c1-7(2)5-10-12(9)11-6-8(3)4/h7-8H,5-6H2,1-4H3",SYKANJDVMZPZMM-UHFFFAOYSA-N,?,210.0,105473
105477,18999-28-5,25377-46-2,CCCCC=CC(O)=O,Hept-2-enoic acid,Heptenoic acid,?,24323,DTXSID6067090,CCCCC=CC(O)=O,"InChI=1S/C7H12O2/c1-2-3-4-5-6-7(8)9/h5-6H,2-4H2,1H3,(H,8,9)/b6-5+",YURNCBVQZBJDAJ-AATRIKPKSA-N,?,226.5,105477
105482,19155-24-9,19155-24-9,CC1(C)C(=O)Nc2ccccc12,"2H-INDOL-2-ONE, 1,3-DIHYDRO-3,3-DIMETHYL-","3,3-dimethylindolin-2-one",C10H11NO,24327,DTXSID20310375,CC1(C)C(=O)Nc2ccccc12,"InChI=1S/C10H11NO/c1-10(2)7-5-3-4-6-8(7)11-9(10)12/h3-6H,1-2H3,(H,11,12)",KEZHRKOVLKUYCQ-UHFFFAOYSA-N,?,300.0,105482
105486,19354-27-9,NOCAS_871290,COCC1CCCO1,METHYL TETRAHYDROFURFURYL ETHER,,,24331,DTXSID80871290,COCC1CCCO1,"InChI=1S/C6H12O2/c1-7-5-6-3-2-4-8-6/h6H,2-5H2,1H3",IEOPZUMPHCZMCS-UHFFFAOYSA-N,?,140.0,105486
105490,19398-77-7,19398-77-7,CCC(CC)C(CC)CC,"Hexane, 3,4-diethyl-","Hexane, 3,4-diethyl-","3,4-Diethylhexane",24335,DTXSID7066485,CCC(CC)C(CC)CC,"InChI=1S/C10H22/c1-5-9(6-2)10(7-3)8-4/h9-10H,5-8H2,1-4H3",VBZCRMTUDYIWIH-UHFFFAOYSA-N,?,163.9,105490
105494,19484-26-5,19484-26-5,CCCCCCCCCCCCCS,1-TRIDECANETHIOL,1-Tridecanethiol,tridecane-1-thiol,24339,DTXSID8066501,CCCCCCCCCCCCCS,"InChI=1S/C13H28S/c1-2-3-4-5-6-7-8-9-10-11-12-13-14/h14H,2-13H2,1H3",IPBROXKVGHZHJV-UHFFFAOYSA-N,?,290.8,105494
105499,19549-84-9,NOCAS_871297,CC(CC)C(=O)C(C)CC,"3,5-Dimethyl-heptan-4-one",,,24343,DTXSID00871297,CC(CC)C(=O)C(C)CC,"InChI=1S/C9H18O/c1-5-7(3)9(10)8(4)6-2/h7-8H,5-6H2,1-4H3",VZXXYILNWWRSGE-UHFFFAOYSA-N,?,162.0,105499
105503,19550-10-8,NOCAS_871301,CCC(C)C(C)C(C)=O,"2-HEXANONE, 3,4-DIMETHYL-",,,24347,DTXSID30871301,CCC(C)C(C)C(C)=O,"InChI=1S/C8H16O/c1-5-6(2)7(3)8(4)9/h6-7H,5H2,1-4H3",YGXOERUAAWTDEV-UHFFFAOYSA-N,?,158.0,105503
105507,19689-18-0,19689-18-0,CCCC=CCCCCC,4-DECENE,,,24351,DTXSID50876156,CCCC=CCCCCC,"InChI=1S/C10H20/c1-3-5-7-9-10-8-6-4-2/h7,9H,3-6,8,10H2,1-2H3/b9-7+",SOVOPSCRHKEUNJ-VQHVLOKHSA-N,?,170.6,105507
105511,19781-73-8,19781-73-8,CCCCCCCCCCCCCCCCCC1CCCCC1,HEPTADECYLCYCLOHEXANE,Heptadecylcyclohexane,HEPTADECYLCYCLOHEXANE,24355,DTXSID40173489,CCCCCCCCCCCCCCCCCC1CCCCC1,"InChI=1S/C23H46/c1-2-3-4-5-6-7-8-9-10-11-12-13-14-15-17-20-23-21-18-16-19-22-23/h23H,2-22H2,1H3",VLHZQNGNJQYAIZ-UHFFFAOYSA-N,?,397.0,105511
105515,19889-37-3,19889-37-3,CC(CC)(CC)C(O)=O,"Butanoic acid, 2-ethyl-2-methyl-",2-Ethyl-2-methylbutyric acid,2-ethyl-2-methylbutanoic acid,24359,DTXSID7051840,CC(CC)(CC)C(O)=O,"InChI=1S/C7H14O2/c1-4-7(3,5-2)6(8)9/h4-5H2,1-3H3,(H,8,9)",LHJPKLWGGMAUAN-UHFFFAOYSA-N,?,207.0,105515
105519,20063-92-7,20063-92-7,CC/C=C/CCCCC,TRANS-3-NONENE,,,24363,DTXSID70879624,CCC=CCCCCC,"InChI=1S/C9H18/c1-3-5-7-9-8-6-4-2/h5,7H,3-4,6,8-9H2,1-2H3/b7-5+",YCBSHDKATAPNIA-FNORWQNLSA-N,?,147.5,105519