ChemID,source_casrn,CAS,SMILES,NAME,preferred_name,iupac,MPID,dsstox_substance_id,Canonical_QSARr,InChI_Code_QSARr,InChI Key_QSARr,Salt_Solvent,Salt_Solvent_ID,MP,ID
100603,77-26-9,77-26-9,CC(C)CC1(CC=C)C(=O)NC(=O)NC1=O,Butalbital,Butalbital,"5-(2-methylpropyl)-5-(prop-2-en-1-yl)pyrimidine-2,4,6(1H,3H,5H)-trione",27946,DTXSID6022711,CC(C)CC1(CC=C)C(=O)NC(=O)NC1=O,"InChI=1S/C11H16N2O3/c1-4-5-11(6-7(2)3)8(14)12-10(16)13-9(11)15/h4,7H,1,5-6H2,2-3H3,(H2,12,13,14,15,16)",UZVHFVZFNXBMQJ-UHFFFAOYSA-N,?,,138.5,100603
100607,77-36-1,77-36-1,NS(=O)(=O)c1cc(ccc1Cl)C1(O)NC(=O)c2ccccc12,Chlorthalidone,Chlorthalidone,"2-chloro-5-(1-hydroxy-3-oxo-2,3-dihydro-1H-isoindol-1-yl)benzenesulfonamide",27950,DTXSID4022812,NS(=O)(=O)c1cc(ccc1Cl)C1(O)NC(=O)c2ccccc12,"InChI=1S/C14H11ClN2O4S/c15-11-6-5-8(7-12(11)22(16,20)21)14(19)10-4-2-1-3-9(10)13(18)17-14/h1-7,19H,(H,17,18)(H2,16,20,21)",JIVPVXMEBJLZRO-UHFFFAOYSA-N,?,,239.0,100607
100611,77-46-3,77-46-3,CC(=O)Nc1ccc(cc1)S(=O)(=O)c1ccc(cc1)NC(C)=O,Acedapsone,"4,4'-Sulfonylbisacetanilide","N,N'-(sulfonyldibenzene-4,1-diyl)diacetamide",27954,DTXSID1021295,CC(=O)Nc1ccc(cc1)S(=O)(=O)c1ccc(cc1)NC(C)=O,"InChI=1S/C16H16N2O4S/c1-11(19)17-13-3-7-15(8-4-13)23(21,22)16-9-5-14(6-10-16)18-12(2)20/h3-10H,1-2H3,(H,17,19)(H,18,20)",AMTPYFGPPVFBBI-UHFFFAOYSA-N,?,,290.0,100611
100615,,77-52-1,CC1(C)[C@@H]2CC[C@]3(C)[C@H](CC=C4[C@@H]5[C@@H](C)[C@H](C)CC[C@@]5(CC[C@@]34C)C(O)=O)[C@@]2(C)CC[C@@H]1O,"Urs-12-en-28-oic acid, 3-hydroxy-, (3.beta.)-",,,27958,,CC1(C)C2CCC3(C)C(CC=C4C5C(C)C(C)CCC5(CCC34C)C(O)=O)C2(C)CCC1O,"InChI=1S/C30H48O3/c1-18-10-15-30(25(32)33)17-16-28(6)20(24(30)19(18)2)8-9-22-27(5)13-12-23(31)26(3,4)21(27)11-14-29(22,28)7/h8,18-19,21-24,31H,9-17H2,1-7H3,(H,32,33)",WCGUUGGRBIKTOS-UHFFFAOYSA-N,?,,284.0,100615
100619,77-63-4,77-63-4,C[Si]1(O[Si](C)(O[Si](C)(O[Si](C)(O1)c1ccccc1)c1ccccc1)c1ccccc1)c1ccccc1,"2,4,6,8-TETRAMETHYL-2,4,6,8-TETRAPHENYLCYCLOTE*","Cyclotetrasiloxane, 2,4,6,8-tetramethyl-2,4,6,8-tetraphenyl-","2,4,6,8-tetramethyl-2,4,6,8-tetra(phenyl)-1,3,5,7,2,4,6,8-tetraoxatetrasilocane",27962,DTXSID0058809,C[Si]1(O[Si](C)(O[Si](C)(O[Si](C)(O1)c1ccccc1)c1ccccc1)c1ccccc1)c1ccccc1,"InChI=1S/C28H32O4Si4/c1-33(25-17-9-5-10-18-25)29-34(2,26-19-11-6-12-20-26)31-36(4,28-23-15-8-16-24-28)32-35(3,30-33)27-21-13-7-14-22-27/h5-24H,1-4H3",IRVZFACCNZRHSJ-UHFFFAOYSA-N,?,,99.0,100619
100623,77-71-4,77-71-4,CC1(C)NC(=O)NC1=O,"2,4-IMIDAZOLIDINEDIONE, 5,5-DIMETHYL-","5,5-Dimethylhydantoin","5,5-dimethylimidazolidine-2,4-dione",27966,DTXSID5021754,CC1(C)NC(=O)NC1=O,"InChI=1S/C5H8N2O2/c1-5(2)3(8)6-4(9)7-5/h1-2H3,(H2,6,7,8,9)",YIROYDNZEPTFOL-UHFFFAOYSA-N,?,,178.0,100623
100627,77-76-9,77-76-9,CC(C)(OC)OC,"2,2-DIMETHOXYPROPANE","2,2-Dimethoxypropane","2,2-dimethoxypropane",27970,DTXSID7026441,CC(C)(OC)OC,"InChI=1S/C5H12O2/c1-5(2,6-3)7-4/h1-4H3",HEWZVZIVELJPQZ-UHFFFAOYSA-N,?,,-47.0,100627
100632,77-81-6,77-81-6,CCOP(=O)(C#N)N(C)C,TABUN,,,27974,DTXSID80861631,CCOP(=O)(C#N)N(C)C,"InChI=1S/C5H11N2O2P/c1-4-9-10(8,5-6)7(2)3/h4H2,1-3H3",PJVJTCIRVMBVIA-UHFFFAOYSA-N,?,,-50.0,100632
100638,77-92-9,77-92-9,OC(=O)C(O)(CC(O)=O)CC(O)=O,CITRIC ACID,Citric acid,"2-hydroxypropane-1,2,3-tricarboxylic acid",27978,DTXSID3020332,OC(=O)C(O)(CC(O)=O)CC(O)=O,"InChI=1S/C6H8O7/c7-3(8)1-6(13,5(11)12)2-4(9)10/h13H,1-2H2,(H,7,8)(H,9,10)(H,11,12)",KRKNYBCHXYNGOX-UHFFFAOYSA-N,?,,153.0,100638
100645,78-10-4,78-10-4,CCO[Si](OCC)(OCC)OCC,ETHYL SILICATE,Tetraethyl orthosilicate,tetraethyl orthosilicate,27982,DTXSID6026450,CCO[Si](OCC)(OCC)OCC,"InChI=1S/C8H20O4Si/c1-5-9-13(10-6-2,11-7-3)12-8-4/h5-8H2,1-4H3",BOTDANWDWHJENH-UHFFFAOYSA-N,?,,-82.5,100645
100650,78-27-3,78-27-3,C#CC1(O)CCCCC1,1-ETHYNYL CYCLOHEXANOL,1-Ethynylcyclohexanol,1-ethynylcyclohexanol,27986,DTXSID0021757,C#CC1(O)CCCCC1,"InChI=1S/C8H12O/c1-2-8(9)6-4-3-5-7-8/h1,9H,3-7H2",QYLFHLNFIHBCPR-UHFFFAOYSA-N,?,,31.5,100650
100655,78-40-0,78-40-0,CCOP(=O)(OCC)OCC,TRIETHYL PHOSPHATE,Triethyl phosphate,triethyl phosphate,27990,DTXSID8026228,CCOP(=O)(OCC)OCC,"InChI=1S/C6H15O4P/c1-4-8-11(7,9-5-2)10-6-3/h4-6H2,1-3H3",DQWPFSLDHJDLRL-UHFFFAOYSA-N,?,,-56.4,100655
100659,78-51-3,78-51-3,CCCCOCCOP(=O)(OCCOCCCC)OCCOCCCC,TRI-2-BUTOXYETHYL PHOSPHATE,Tris(2-butoxyethyl) phosphate,tris(2-butoxyethyl) phosphate,27994,DTXSID5021758,CCCCOCCOP(=O)(OCCOCCCC)OCCOCCCC,"InChI=1S/C18H39O7P/c1-4-7-10-20-13-16-23-26(19,24-17-14-21-11-8-5-2)25-18-15-22-12-9-6-3/h4-18H2,1-3H3",WTLBZVNBAKMVDP-UHFFFAOYSA-N,?,,-70.0,100659
100663,78-63-7,78-63-7,CC(C)(C)OOC(C)(C)CCC(C)(C)OOC(C)(C)C,Varox,"2,5-Dimethyl-2,5-di-(tert-butylperoxy)hexane","2,5-bis(tert-butylperoxy)-2,5-dimethylhexane",27998,DTXSID9025110,CC(C)(C)OOC(C)(C)CCC(C)(C)OOC(C)(C)C,"InChI=1S/C16H34O4/c1-13(2,3)17-19-15(7,8)11-12-16(9,10)20-18-14(4,5)6/h11-12H2,1-10H3",DMWVYCCGCQPJEA-UHFFFAOYSA-N,?,,8.0,100663
100667,78-75-1,NOCAS_870403,CC(Br)CBr,"1,2-DIBROMOPROPANE",,,28001,DTXSID60870403,CC(Br)CBr,"InChI=1S/C3H6Br2/c1-3(5)2-4/h3H,2H2,1H3",XFNJYAKDBJUJAJ-UHFFFAOYSA-N,?,,-55.49,100667
100671,78-79-5,78-79-5,CC(=C)C=C,"2-METHYL-1,3-BUTADIENE",Isoprene,"2-methylbuta-1,3-diene",28005,DTXSID2020761,CC(=C)C=C,"InChI=1S/C5H8/c1-4-5(2)3/h4H,1-2H2,3H3",RRHGJUQNOFWUDK-UHFFFAOYSA-N,?,,-145.9,100671
100675,78-83-1,78-83-1,CC(C)CO,ISOBUTYL ALCOHOL,2-Methyl-1-propanol,2-methylpropan-1-ol,28009,DTXSID0021759,CC(C)CO,"InChI=1S/C4H10O/c1-4(2)3-5/h4-5H,3H2,1-2H3",ZXEKIIBDNHEJCQ-UHFFFAOYSA-N,?,,-108.0,100675
100679,78-87-5,78-87-5,CC(Cl)CCl,"1,2-DICHLOROPROPANE","1,2-Dichloropropane","1,2-dichloropropane",28013,DTXSID0020448,CC(Cl)CCl,"InChI=1S/C3H6Cl2/c1-3(5)2-4/h3H,2H2,1H3",KNKRKFALVUDBJE-UHFFFAOYSA-N,?,,-100.0,100679
100683,78-95-5,78-95-5,CC(=O)CCl,CHLOROACETONE,1-Chloropropan-2-one,1-chloropropan-2-one,28016,DTXSID0021547,CC(=O)CCl,"InChI=1S/C3H5ClO/c1-3(5)2-4/h2H2,1H3",BULLHNJGPPOUOX-UHFFFAOYSA-N,?,,-44.5,100683
100687,79-01-6,79-01-6,ClC=C(Cl)Cl,TRICHLOROETHENE,Trichloroethylene,"1,1,2-trichloroethene",28020,DTXSID0021383,ClC=C(Cl)Cl,InChI=1S/C2HCl3/c3-1-2(4)5/h1H,XSTXAVWGXDQKEL-UHFFFAOYSA-N,?,,-84.7,100687
100691,79-05-0,79-05-0,CCC(N)=O,PROPRIONAMIDE,Propanamide,Propanamide,28023,DTXSID3058820,CCC(N)=O,"InChI=1S/C3H7NO/c1-2-3(4)5/h2H2,1H3,(H2,4,5)",QLNJFJADRCOGBJ-UHFFFAOYSA-N,?,,81.3,100691
100695,79-09-4,79-09-4,CCC(O)=O,PROPIONIC ACID,Propionic acid,propanoic acid,28027,DTXSID8025961,CCC(O)=O,"InChI=1S/C3H6O2/c1-2-3(4)5/h2H2,1H3,(H,4,5)",XBDQKXXYIPTUBI-UHFFFAOYSA-N,?,,-20.7,100695
100699,79-15-2,79-15-2,CC(=O)NBr,"Acetamide, N-bromo-",N-Bromoacetamide,N-bromoacetamide,28031,DTXSID5024633,CC(=O)NBr,"InChI=1S/C2H4BrNO/c1-2(5)4-3/h1H3,(H,4,5)",VBTQNRFWXBXZQR-UHFFFAOYSA-N,?,,103.5,100699
100703,79-21-0,79-21-0,CC(=O)OO,PEROXYACETIC ACID,Peracetic acid,ethaneperoxoic acid,28035,DTXSID1025853,CC(=O)OO,"InChI=1S/C2H4O3/c1-2(3)5-4/h4H,1H3",KFSLWBXXFJQRDL-UHFFFAOYSA-N,?,,-0.2,100703
100707,79-28-7,79-28-7,BrC(Br)=C(Br)Br,"Ethene, tetrabromo-","Ethene, 1,1,2,2-tetrabromo-","1,1,2,2-tetrabromoethene",28039,DTXSID8058821,BrC(Br)=C(Br)Br,InChI=1S/C2Br4/c3-1(4)2(5)6,OVRRJBSHBOXFQE-UHFFFAOYSA-N,?,,56.5,100707
100712,79-34-5,79-34-5,ClC(Cl)C(Cl)Cl,"1,1,2,2-TETRACHLOROETHANE","1,1,2,2-Tetrachloroethane","1,1,2,2-tetrachloroethane",28044,DTXSID7021318,ClC(Cl)C(Cl)Cl,InChI=1S/C2H2Cl4/c3-1(4)2(5)6/h1-2H,QPFMBZIOSGYJDE-UHFFFAOYSA-N,?,,-43.8,100712
100716,79-39-0,79-39-0,CC(=C)C(N)=O,Methacrylamide,Methacrylamide,2-methylprop-2-enamide,28048,DTXSID8029600,CC(=C)C(N)=O,"InChI=1S/C4H7NO/c1-3(2)4(5)6/h1H2,2H3,(H2,5,6)",FQPSGWSUVKBHSU-UHFFFAOYSA-N,?,,110.0,100716
100720,79-44-7,79-44-7,CN(C)C(=O)Cl,DIMETHYLCARBAMYL CHLORIDE,Dimethylcarbamoyl chloride,dimethylcarbamic chloride,28052,DTXSID1020512,CN(C)C(=O)Cl,InChI=1S/C3H6ClNO/c1-5(2)3(4)6/h1-2H3,YIIMEMSDCNDGTB-UHFFFAOYSA-N,?,,-33.0,100720
100724,79-54-9,79-54-9,CC(C)C1C=C2CC[C@H]3[C@@](C)(CCC[C@]3(C)[C@H]2CC=1)C(O)=O,Levopimaric acid,,,28056,DTXSID20878526,CC(C)C1C=C2CCC3C(C)(CCCC3(C)C2CC=1)C(O)=O,"InChI=1S/C20H30O2/c1-13(2)14-6-8-16-15(12-14)7-9-17-19(16,3)10-5-11-20(17,4)18(21)22/h6,12-13,16-17H,5,7-11H2,1-4H3,(H,21,22)",RWWVEQKPFPXLGL-UHFFFAOYSA-N,?,,150.0,100724
100729,79-74-3,79-74-3,CC(C)(CC)c1cc(O)c(cc1O)C(C)(C)CC,"1,4-Benzenediol, 2,5-bis(1,1-dimethylpropyl)-","2,5-Bis(2-methylbutan-2-yl)benzene-1,4-diol","2,5-bis(2-methylbutan-2-yl)benzene-1,4-diol",28060,DTXSID5044992,CC(C)(CC)c1cc(O)c(cc1O)C(C)(C)CC,"InChI=1S/C16H26O2/c1-7-15(3,4)11-9-14(18)12(10-13(11)17)16(5,6)8-2/h9-10,17-18H,7-8H2,1-6H3",CZNRFEXEPBITDS-UHFFFAOYSA-N,?,,180.0,100729
100734,79-95-8,79-95-8,CC(C)(c1cc(Cl)c(O)c(Cl)c1)c1cc(Cl)c(O)c(Cl)c1,Tetrachlorodian,"2,2',6,6'-Tetrachlorobisphenol A","4,4'-propane-2,2-diylbis(2,6-dichlorophenol)",28064,DTXSID3021770,CC(C)(c1cc(Cl)c(O)c(Cl)c1)c1cc(Cl)c(O)c(Cl)c1,"InChI=1S/C15H12Cl4O2/c1-15(2,7-3-9(16)13(20)10(17)4-7)8-5-11(18)14(21)12(19)6-8/h3-6,20-21H,1-2H3",KYPYTERUKNKOLP-UHFFFAOYSA-N,?,,135.0,100734
100738,80-02-4,80-02-4,Nc1ccc(cc1)S(=O)(=O)c1ccc(cc1)NCCO,2-p-Sulfanilylanilinoethanol,2-p-Sulfanilylanilinoethanol,2-[[4-(4-aminophenyl)sulfonylphenyl]amino]ethanol,28068,DTXSID40229990,Nc1ccc(cc1)S(=O)(=O)c1ccc(cc1)NCCO,"InChI=1S/C14H16N2O3S/c15-11-1-5-13(6-2-11)20(18,19)14-7-3-12(4-8-14)16-9-10-17/h1-8,16-17H,9-10,15H2",LLBKEUTWJFQRJU-UHFFFAOYSA-N,?,,131.0,100738
100742,80-07-9,80-07-9,O=S(=O)(c1ccc(Cl)cc1)c1ccc(Cl)cc1,"Benzene, 1,1'-sulfonylbis 4-chloro-","4,4'-Dichlorodiphenyl sulfone",bis(4-chlorophenyl) sulfone,28072,DTXSID9024986,O=S(=O)(c1ccc(Cl)cc1)c1ccc(Cl)cc1,"InChI=1S/C12H8Cl2O2S/c13-9-1-5-11(6-2-9)17(15,16)12-7-3-10(14)4-8-12/h1-8H",GPAPPPVRLPGFEQ-UHFFFAOYSA-N,?,,147.9,100742
100746,80-15-9,80-15-9,CC(C)(OO)c1ccccc1,CUMENE HYDROPEROXIDE,Cumene hydroperoxide,2-phenylpropan-2-yl hydroperoxide,28076,DTXSID3024869,CC(C)(OO)c1ccccc1,"InChI=1S/C9H12O2/c1-9(2,11-10)8-6-4-3-5-7-8/h3-7,10H,1-2H3",YQHLDYVWEZKEOX-UHFFFAOYSA-N,?,,-9.0,100746
100750,80-33-1,80-33-1,O=S(=O)(Oc1ccc(Cl)cc1)c1ccc(Cl)cc1,CHLORFENSON,Chlorfenson,4-chlorophenyl 4-chlorobenzenesulfonate,28080,DTXSID5020310,O=S(=O)(Oc1ccc(Cl)cc1)c1ccc(Cl)cc1,"InChI=1S/C12H8Cl2O3S/c13-9-1-5-11(6-2-9)17-18(15,16)12-7-3-10(14)4-8-12/h1-8H",RZXLPPRPEOUENN-UHFFFAOYSA-N,?,,86.5,100750
100754,80-46-6,80-46-6,CC(C)(CC)c1ccc(O)cc1,P-TERT-AMYLPHENOL,4-(2-Methylbutan-2-yl)phenol,4-(2-methylbutan-2-yl)phenol,28084,DTXSID8021771,CC(C)(CC)c1ccc(O)cc1,"InChI=1S/C11H16O/c1-4-11(2,3)9-5-7-10(12)8-6-9/h5-8,12H,4H2,1-3H3",NRZWYNLTFLDQQX-UHFFFAOYSA-N,?,,95.0,100754
100760,80-56-8|2437-95-8|7785-26-4|7785-70-8,80-56-8|7785-26-4|7785-70-8,CC1=CCC2CC1C2(C)C,"ALPHA-PINENE, DL-PIN-2(3)-ENE, Bicyclo 3.1.1 hept-2-ene, 2,6,6-trimethyl-, (1S), (+)-alpha-Pinene",alpha-Pinene,"2,6,6-trimethylbicyclo[3.1.1]hept-2-ene",28088|33674|34745|34746,DTXSID4026501|DTXSID2029290|DTXSID7041671,CC1=CCC2CC1C2(C)C,"InChI=1S/C10H16/c1-7-4-5-8-6-9(7)10(8,2)3/h4,8-9H,5-6H2,1-3H3",GRWFGVWFFZKLTI-UHFFFAOYSA-N,?,,-60.49999999999999,100760
100764,80-62-6,80-62-6,CC(=C)C(=O)OC,METHYL METHACRYLATE,Methyl methacrylate,methyl 2-methylprop-2-enoate,28092,DTXSID2020844,CC(=C)C(=O)OC,"InChI=1S/C5H8O2/c1-4(2)5(6)7-3/h1H2,2-3H3",VVQNEPGJFQJSBK-UHFFFAOYSA-N,?,,-48.0,100764
100768,80-74-0,80-74-0,CC(=O)N(c1o[n]c(C)c1C)S(=O)(=O)c1ccc(N)cc1,Acetyl sulfisoxazole,Sulfisoxazole acetal,"N-[(4-aminophenyl)sulfonyl]-N-(3,4-dimethyl-1,2-oxazol-5-yl)acetamide",28096,DTXSID4023620,CC(=O)N(c1o[n]c(C)c1C)S(=O)(=O)c1ccc(N)cc1,"InChI=1S/C13H15N3O4S/c1-8-9(2)15-20-13(8)16(10(3)17)21(18,19)12-6-4-11(14)5-7-12/h4-7H,14H2,1-3H3",JFNWFXVFBDDWCX-UHFFFAOYSA-N,?,,193.5,100768
100774,80-97-7|360-68-9|516-95-0,516-92-7|360-68-9,CC(C)CCC[C@@H](C)[C@H]1CC[C@H]2[C@@H]3CC[C@@H]4C[C@H](O)CC[C@]4(C)[C@H]3CC[C@]12C,"Cholestan-3-ol, (3.beta.,5.alpha.)-, COPROSTANOL, Cholestan-3-ol, (3.alpha.,5.alpha.)-","(3alpha,5beta)-Cholestan-3-ol","(3alpha,5beta)-cholestan-3-ol",28100|30252|30830,DTXSID7046700|DTXSID1052036,CC(C)CCCC(C)C1CCC2C3CCC4CC(O)CCC4(C)C3CCC12C,"InChI=1S/C27H48O/c1-18(2)7-6-8-19(3)23-11-12-24-22-10-9-20-17-21(28)13-15-26(20,4)25(22)14-16-27(23,24)5/h18-25,28H,6-17H2,1-5H3",QYIXCDOBOSTCEI-UHFFFAOYSA-N,?,,143.0,100774
100778,81-16-3,81-16-3,Nc1ccc2ccccc2c1S(O)(=O)=O,2-AMINO-1-NAPHTHALENESULFONIC ACID,2-Amino-1-naphthalenesulfonic acid,2-aminonaphthalene-1-sulfonic acid,28104,DTXSID7020922,Nc1ccc2ccccc2c1S(O)(=O)=O,"InChI=1S/C10H9NO3S/c11-9-6-5-7-3-1-2-4-8(7)10(9)15(12,13)14/h1-6H,11H2,(H,12,13,14)",GWIAAIUASRVOIA-UHFFFAOYSA-N,?,,180.0,100778
100782,81-49-2,81-49-2,Nc1c2c(c(Br)cc1Br)C(=O)c1ccccc1C2=O,"1-AMINO-2,4-DIBROMOANTHRAQUINONE","1-Amino-2,4-dibromoanthraquinone","1-amino-2,4-dibromoanthracene-9,10-dione",28108,DTXSID4039235,Nc1c2c(c(Br)cc1Br)C(=O)c1ccccc1C2=O,"InChI=1S/C14H7Br2NO2/c15-8-5-9(16)12(17)11-10(8)13(18)6-3-1-2-4-7(6)14(11)19/h1-5H,17H2",ZINRVIQBCHAZMM-UHFFFAOYSA-N,?,,221.0,100782
100786,81-81-2,81-81-2,CC(=O)CC(C1=C(O)c2ccccc2OC1=O)c1ccccc1,WARFARIN,Warfarin,4-hydroxy-3-(3-oxo-1-phenylbutyl)-2H-chromen-2-one,28111,DTXSID5023742,CC(=O)CC(C1=C(O)c2ccccc2OC1=O)c1ccccc1,"InChI=1S/C19H16O4/c1-12(20)11-15(13-7-3-2-4-8-13)17-18(21)14-9-5-6-10-16(14)23-19(17)22/h2-10,15,21H,11H2,1H3",PJVWKTKQMONHTI-UHFFFAOYSA-N,?,,161.0,100786
100790,81-90-3,81-90-3,OC(=O)c1ccccc1C(c1ccc(O)cc1)c1ccc(O)cc1,"Benzoic acid, 2- bis(4-hydroxyphenyl)methyl -",Phenolphthalin,2-[bis(4-hydroxyphenyl)methyl]benzoic acid,28115,DTXSID5022439,OC(=O)c1ccccc1C(c1ccc(O)cc1)c1ccc(O)cc1,"InChI=1S/C20H16O4/c21-15-9-5-13(6-10-15)19(14-7-11-16(22)12-8-14)17-3-1-2-4-18(17)20(23)24/h1-12,19,21-22H,(H,23,24)",FFFPYJTVNSSLBQ-UHFFFAOYSA-N,?,,230.5,100790
100794,82-10-0,82-10-0,CC(=C)[C@H]1Cc2c3O[C@@H]4COc5cc(OC)c(cc5[C@@H]4C(=O)c3c(O)cc2O1)OC,Sumatrol,Sumatrol,,28119,DTXSID90231503,CC(=C)C1Cc2c3OC4COc5cc(OC)c(cc5C4C(=O)c3c(O)cc2O1)OC,"InChI=1S/C23H22O7/c1-10(2)14-6-12-16(29-14)7-13(24)21-22(25)20-11-5-17(26-3)18(27-4)8-15(11)28-9-19(20)30-23(12)21/h5,7-8,14,19-20,24H,1,6,9H2,2-4H3",ZPEHYKMRUBEPSQ-UHFFFAOYSA-N,?,,195.0,100794
100798,82-34-8,82-34-8,[O-][N+](=O)c1cccc2c1C(=O)c1ccccc1C2=O,1-NITROANTHRAQUINONE,1-Nitroanthraquinone,"1-nitro-9,10-anthraquinone",28123,DTXSID3052569,[O-][N+](=O)c1cccc2c1C(=O)c1ccccc1C2=O,InChI=1S/C14H7NO4/c16-13-8-4-1-2-5-9(8)14(17)12-10(13)6-3-7-11(12)15(18)19/h1-7H,YCANAXVBJKNANM-UHFFFAOYSA-N,?,,231.5,100798
100803,82-45-1,82-45-1,Nc1cccc2c1C(=O)c1ccccc1C2=O,1-AMINOANTHRAQUINONE,1-Aminoanthraquinone,"1-amino-9,10-anthraquinone",28127,DTXSID2052572,Nc1cccc2c1C(=O)c1ccccc1C2=O,"InChI=1S/C14H9NO2/c15-11-7-3-6-10-12(11)14(17)9-5-2-1-4-8(9)13(10)16/h1-7H,15H2",KHUFHLFHOQVFGB-UHFFFAOYSA-N,?,,253.5,100803
100807,82-66-6,82-66-6,O=C(C1C(=O)c2ccccc2C1=O)C(c1ccccc1)c1ccccc1,DIPHACINONE,Diphacinone,"2-(diphenylacetyl)-1H-indene-1,3(2H)-dione",28131,DTXSID4032378,O=C(C1C(=O)c2ccccc2C1=O)C(c1ccccc1)c1ccccc1,"InChI=1S/C23H16O3/c24-21-17-13-7-8-14-18(17)22(25)20(21)23(26)19(15-9-3-1-4-10-15)16-11-5-2-6-12-16/h1-14,19-20H",JYGLAHSAISAEAL-UHFFFAOYSA-N,?,,146.5,100807
100811,82-86-0,82-86-0,O=C1c2cccc3cccc(c32)C1=O,"1,2-ACENAPHTHYLENEDIONE",Acenaphthenequinone,"acenaphthylene-1,2-dione",28135,DTXSID7049429,O=C1c2cccc3cccc(c32)C1=O,InChI=1S/C12H6O2/c13-11-8-5-1-3-7-4-2-6-9(10(7)8)12(11)14/h1-6H,AFPRJLBZLPBTPZ-UHFFFAOYSA-N,?,,261.0,100811
100815,83-05-6,83-05-6,OC(=O)C(c1ccc(Cl)cc1)c1ccc(Cl)cc1,DDA,"p,p'-DDA",bis(4-chlorophenyl)acetic acid,28139,DTXSID3040699,OC(=O)C(c1ccc(Cl)cc1)c1ccc(Cl)cc1,"InChI=1S/C14H10Cl2O2/c15-11-5-1-9(2-6-11)13(14(17)18)10-3-7-12(16)8-4-10/h1-8,13H,(H,17,18)",YIOCIFXUGBYCJR-UHFFFAOYSA-N,?,,168.0,100815
100819,83-14-7,NOCAS_871560,COc1cc2CCN(C)C(C)c2c(O)c1OC,Pellotine,,,28143,DTXSID50871560,COc1cc2CCN(C)C(C)c2c(O)c1OC,"InChI=1S/C13H19NO3/c1-8-11-9(5-6-14(8)2)7-10(16-3)13(17-4)12(11)15/h7-8,15H,5-6H2,1-4H3",NKHMWHLJHODBEP-UHFFFAOYSA-N,?,,111.5,100819
100823,83-32-9,83-32-9,C1Cc2cccc3cccc1c23,ACENAPHTHENE,Acenaphthene,"1,2-dihydroacenaphthylene",28147,DTXSID3021774,C1Cc2cccc3cccc1c23,"InChI=1S/C12H10/c1-3-9-4-2-6-11-8-7-10(5-1)12(9)11/h1-6H,7-8H2",CWRYPZZKDGJXCA-UHFFFAOYSA-N,?,,93.4,100823
100827,83-40-9,83-40-9,Cc1cccc(C(O)=O)c1O,3-METHYLSALICYLIC ACID,2-Hydroxy-3-methylbenzoic acid,2-hydroxy-3-methylbenzoic acid,28151,DTXSID9038686,Cc1cccc(C(O)=O)c1O,"InChI=1S/C8H8O3/c1-5-3-2-4-6(7(5)9)8(10)11/h2-4,9H,1H3,(H,10,11)",WHSXTWFYRGOBGO-UHFFFAOYSA-N,?,,165.5,100827
100831,83-44-3,83-44-3,C[C@H](CCC(O)=O)[C@H]1CC[C@H]2[C@@H]3CC[C@@H]4C[C@H](O)CC[C@]4(C)[C@H]3C[C@H](O)[C@@]21C,DEOXYCHOLIC ACID,Deoxycholic acid,"(3alpha,5beta,12alpha)-3,12-dihydroxycholan-24-oic acid",28155,DTXSID0042662,CC(CCC(O)=O)C1CCC2C3CCC4CC(O)CCC4(C)C3CC(O)C21C,"InChI=1S/C24H40O4/c1-14(4-9-22(27)28)18-7-8-19-17-6-5-15-12-16(25)10-11-23(15,2)20(17)13-21(26)24(18,19)3/h14-21,25-26H,4-13H2,1-3H3,(H,27,28)",KXGVEGMKQFWNSR-UHFFFAOYSA-N,?,,177.0,100831
100839,83-58-9,83-58-9,CC(C)[C@H](O)CC1C(=O)N(C)c2c(cccc2C=1OC)OC,Lunacridine,Lunacridine,"3-[(2R)-2-hydroxy-3-methylbutyl]-4,8-dimethoxy-1-methylquinolin-2-one",28160,DTXSID90232111,CC(C)C(O)CC1C(=O)N(C)c2c(cccc2C=1OC)OC,"InChI=1S/C17H23NO4/c1-10(2)13(19)9-12-16(22-5)11-7-6-8-14(21-4)15(11)18(3)17(12)20/h6-8,10,13,19H,9H2,1-5H3",VRMGQDHQTYUISY-UHFFFAOYSA-N,?,,86.5,100839
100843,83-67-0,83-67-0,CN1c2[n]c[n](C)c2C(=O)NC1=O,THEOBROMINE,Theobromine,"3,7-dimethyl-3,7-dihydro-1H-purine-2,6-dione",28164,DTXSID9026132,CN1c2[n]c[n](C)c2C(=O)NC1=O,"InChI=1S/C7H8N4O2/c1-10-3-8-5-4(10)6(12)9-7(13)11(5)2/h3H,1-2H3,(H,9,12,13)",YAPQBXQYLJRXSA-UHFFFAOYSA-N,?,,357.0,100843
100848,83-85-2,83-85-2,CC1OC(=O)C=C2C1=C(O)C(=O)C1OC(C)(C)CCC=12,Fuscin,,,28168,DTXSID80874665,CC1OC(=O)C=C2C1=C(O)C(=O)C1OC(C)(C)CCC=12,"InChI=1S/C15H16O5/c1-7-11-9(6-10(16)19-7)8-4-5-15(2,3)20-14(8)13(18)12(11)17/h6-7,17H,4-5H2,1-3H3",OSJKAGRXDVEZQO-UHFFFAOYSA-N,?,,230.0,100848
100853,84-11-7,84-11-7,O=C1c2ccccc2-c2ccccc2C1=O,"9,10-PHENANTHRENEDIONE","9,10-Phenanthrenedione","Phenanthrene-9,10-dione",28172,DTXSID3058901,O=C1c2ccccc2-c2ccccc2C1=O,InChI=1S/C14H8O2/c15-13-11-7-3-1-5-9(11)10-6-2-4-8-12(10)14(13)16/h1-8H,YYVYAPXYZVYDHN-UHFFFAOYSA-N,?,,209.0,100853
100857,84-21-9,84-21-9,Nc1[n]c[n]c2c1[n]c[n]2[C@@H]1O[C@H](CO)[C@@H](OP(O)(O)=O)[C@H]1O,3'-Adenylic acid,,,28176,DTXSID40876084,Nc1[n]c[n]c2c1[n]c[n]2C1OC(CO)C(OP(O)(O)=O)C1O,"InChI=1S/C10H14N5O7P/c11-8-5-9(13-2-12-8)15(3-14-5)10-6(17)7(4(1-16)21-10)22-23(18,19)20/h2-4,6-7,10,16-17H,1H2,(H2,11,12,13)(H2,18,19,20)",LNQVTSROQXJCDD-UHFFFAOYSA-N,?,,197.0,100857
100861,84-36-6,84-36-6,CCOC(=O)Oc1c(cc(cc1OC)C(=O)O[C@@H]1C[C@@H]2CN3CCc4c([nH]c5cc(ccc45)OC)[C@H]3C[C@@H]2[C@@H]([C@H]1OC)C(=O)OC)OC,Syrosingopine,Syrosingopine,"methyl (3beta,16beta,17alpha,18beta,20alpha)-18-({4-[(ethoxycarbonyl)oxy]-3,5-dimethoxybenzoyl}oxy)-11,17-dimethoxyyohimban-16-carboxylate",28180,DTXSID9023629,CCOC(=O)Oc1c(cc(cc1OC)C(=O)OC1CC2CN3CCc4c([nH]c5cc(ccc45)OC)C3CC2C(C1OC)C(=O)OC)OC,"InChI=1S/C35H42N2O11/c1-7-46-35(40)48-31-26(42-3)12-18(13-27(31)43-4)33(38)47-28-14-19-17-37-11-10-22-21-9-8-20(41-2)15-24(21)36-30(22)25(37)16-23(19)29(32(28)44-5)34(39)45-6/h8-9,12-13,15,19,23,25,28-29,32,36H,7,10-11,14,16-17H2,1-6H3",ZCDNRPPFBQDQHR-UHFFFAOYSA-N,?,,177.0,100861
100865,84-51-5,84-51-5,CCc1cc2c(cc1)C(=O)c1ccccc1C2=O,2-ETHYLANTHRAQUINONE,"2-Ethylanthracene-9,10-dione","2-ethylanthracene-9,10-dione",28184,DTXSID5044994,CCc1cc2c(cc1)C(=O)c1ccccc1C2=O,"InChI=1S/C16H12O2/c1-2-10-7-8-13-14(9-10)16(18)12-6-4-3-5-11(12)15(13)17/h3-9H,2H2,1H3",SJEBAWHUJDUKQK-UHFFFAOYSA-N,?,,109.5,100865
100869,84-61-7,84-61-7,O=C(OC1CCCCC1)c1ccccc1C(=O)OC1CCCCC1,DICYCLOHEXYL PHTHALATE,Dicyclohexyl phthalate,"dicyclohexyl benzene-1,2-dicarboxylate",28188,DTXSID5025021,O=C(OC1CCCCC1)c1ccccc1C(=O)OC1CCCCC1,"InChI=1S/C20H26O4/c21-19(23-15-9-3-1-4-10-15)17-13-7-8-14-18(17)20(22)24-16-11-5-2-6-12-16/h7-8,13-16H,1-6,9-12H2",VOWAEIGWURALJQ-UHFFFAOYSA-N,?,,66.0,100869
100873,84-68-4,84-68-4,Nc1cc(Cl)c(cc1)-c1ccc(N)cc1Cl,"2,2'-Dichlorobenzidine","2,2'-Dichlorobenzidine",4-(4-amino-2-chlorophenyl)-3-chloroaniline,28192,DTXSID10232890,Nc1cc(Cl)c(cc1)-c1ccc(N)cc1Cl,"InChI=1S/C12H10Cl2N2/c13-11-5-7(15)1-3-9(11)10-4-2-8(16)6-12(10)14/h1-6H,15-16H2",XKXPBJBODVHDAW-UHFFFAOYSA-N,?,,165.0,100873