ChemID,source_casrn,CAS,SMILES,NAME,preferred_name,iupac,MPID,dsstox_substance_id,Canonical_QSARr,InChI_Code_QSARr,InChI Key_QSARr,Salt_Solvent,BP,ID
103419,824-94-2,824-94-2,COc1ccc(CCl)cc1,4-Methoxybenzyl chloride,4-Methyloxybenzyl chloride,1-(Chloromethyl)-4-methoxybenzene,22382,DTXSID20231718,COc1ccc(CCl)cc1,"InChI=1S/C8H9ClO/c1-10-8-4-2-7(6-9)3-5-8/h2-5H,6H2,1H3",MOHYOXXOKFQHDC-UHFFFAOYSA-N,?,262.5,103419
103423,826-81-3,826-81-3,Cc1ccc2cccc(O)c2[n]1,2-METHYL 8-QUINOLONOL,"8-Quinolinol, 2-methyl-",2-Methylquinolin-8-ol,22386,DTXSID3061184,Cc1ccc2cccc(O)c2[n]1,"InChI=1S/C10H9NO/c1-7-5-6-8-3-2-4-9(12)10(8)11-7/h2-6,12H,1H3",NBYLBWHHTUWMER-UHFFFAOYSA-N,?,267.0,103423
103427,827-52-1,827-52-1,C1CCCCC1c1ccccc1,PHENYL CYCLOHEXANE,Cyclohexylbenzene,Cyclohexylbenzene,22390,DTXSID3061188,C1CCCCC1c1ccccc1,"InChI=1S/C12H16/c1-3-7-11(8-4-1)12-9-5-2-6-10-12/h1,3-4,7-8,12H,2,5-6,9-10H2",IGARGHRYKHJQSM-UHFFFAOYSA-N,?,240.1,103427
103431,834-12-8,834-12-8,CCNc1[n]c(NC(C)C)[n]c([n]1)SC,AMETRYNE,Ametryn,"N-ethyl-6-(methylsulfanyl)-N'-(propan-2-yl)-1,3,5-triazine-2,4-diamine",22394,DTXSID1023869,CCNc1[n]c(NC(C)C)[n]c([n]1)SC,"InChI=1S/C9H17N5S/c1-5-10-7-12-8(11-6(2)3)14-9(13-7)15-4/h6H,5H2,1-4H3,(H2,10,11,12,13,14)",RQVYBGPQFYCBGX-UHFFFAOYSA-N,?,345.0,103431
103435,865-71-4,865-71-4,FC(C(F)(F)C(F)(F)F)(C(F)(F)C(F)(F)F)C(F)(F)F,Undecafluoro-3-trifluoromethyl-pentane,"1,1,1,2,2,3,4,4,5,5,5-Undecafluoro-3-(trifluoromethyl)pentane","1,1,1,2,2,3,4,4,5,5,5-Undecafluoro-3-(trifluoromethyl)pentane",22398,DTXSID50235603,FC(C(F)(F)C(F)(F)F)(C(F)(F)C(F)(F)F)C(F)(F)F,"InChI=1S/C6F14/c7-1(4(12,13)14,2(8,9)5(15,16)17)3(10,11)6(18,19)20",GXSFAIDPYIEIEF-UHFFFAOYSA-N,?,58.4,103435
103439,871-28-3,NOCAS_870788,C=CCC#C,1-PENTEN-4-YNE,,,22402,DTXSID80870788,C=CCC#C,"InChI=1S/C5H6/c1-3-5-4-2/h1,4H,2,5H2",LKOBTUTURSPCEE-UHFFFAOYSA-N,?,42.5,103439
103443,872-31-1,872-31-1,Brc1c[s]cc1,3-BROMOTHIOPHENE,3-Bromothiophene,3-bromothiophene,22406,DTXSID2022129,Brc1c[s]cc1,InChI=1S/C4H3BrS/c5-4-1-2-6-3-4/h1-3H,XCMISAPCWHTVNG-UHFFFAOYSA-N,?,150.0,103443
103448,873-32-5,873-32-5,N#Cc1ccccc1Cl,"Benzonitrile, 2-chloro-",2-Chlorobenzonitrile,2-chlorobenzonitrile,22410,DTXSID5052593,N#Cc1ccccc1Cl,InChI=1S/C7H4ClN/c8-7-4-2-1-3-6(7)5-9/h1-4H,NHWQMJMIYICNBP-UHFFFAOYSA-N,?,232.0,103448
103453,873-94-9,873-94-9,CC1CC(=O)CC(C)(C)C1,"Cyclohexanone, 3,3,5-trimethyl-","3,3,5-Trimethylcyclohexanone","3,3,5-trimethylcyclohexanone",22415,DTXSID5044996,CC1CC(=O)CC(C)(C)C1,"InChI=1S/C9H16O/c1-7-4-8(10)6-9(2,3)5-7/h7H,4-6H2,1-3H3",POSWICCRDBKBMH-UHFFFAOYSA-N,?,189.0,103453
103457,874-60-2,874-60-2,Cc1ccc(cc1)C(=O)Cl,"Benzoyl chloride, 4-methyl-",p-Toluoyl chloride,4-methylbenzoyl chloride,22419,DTXSID5052595,Cc1ccc(cc1)C(=O)Cl,"InChI=1S/C8H7ClO/c1-6-2-4-7(5-3-6)8(9)10/h2-5H,1H3",NQUVCRCCRXRJCK-UHFFFAOYSA-N,?,226.0,103457
103461,875-30-9,875-30-9,Cc1c[n](C)c2ccccc12,"1H-INDOLE, 1,3-DIMETHYL-","1,3-Dimethylindole","1,3-Dimethylindole",22423,DTXSID80236360,Cc1c[n](C)c2ccccc12,"InChI=1S/C10H11N/c1-8-7-11(2)10-6-4-3-5-9(8)10/h3-7H,1-2H3",NAPPMSNSLWACIV-UHFFFAOYSA-N,?,258.5,103461
103465,877-43-0,877-43-0,Cc1cc2ccc(C)[n]c2cc1,"2,6-DIMETHYLQUINOLINE","2,6-Dimethylquinoline","2,6-dimethylquinoline",22427,DTXSID0044153,Cc1cc2ccc(C)[n]c2cc1,"InChI=1S/C11H11N/c1-8-3-6-11-10(7-8)5-4-9(2)12-11/h3-7H,1-2H3",JJPSZKIOGBRMHK-UHFFFAOYSA-N,?,266.5,103465
103469,879-97-0,879-97-0,CC(C)(C)c1cc(C)c(O)c(C)c1,"Phenol, 4-(1,1-dimethylethyl)-2,6-dimethyl-","Phenol, 4-(1,1-dimethylethyl)-2,6-dimethyl-","4-tert-Butyl-2,6-dimethylphenol",22431,DTXSID4061254,CC(C)(C)c1cc(C)c(O)c(C)c1,"InChI=1S/C12H18O/c1-8-6-10(12(3,4)5)7-9(2)11(8)13/h6-7,13H,1-5H3",MEPYMUOZRROULQ-UHFFFAOYSA-N,?,248.0,103469
103474,888-71-1,888-71-1,c1ccccc1-c1[n]c([n]o1)-c1ccccc1,"1,2,4-OXADIAZOLE, 3,5-DIPHENYL-","3,5-Diphenyl-1,2,4-oxadiazole","3,5-di(phenyl)-1,2,4-oxadiazole",22435,DTXSID40237338,c1ccccc1-c1[n]c([n]o1)-c1ccccc1,InChI=1S/C14H10N2O/c1-3-7-11(8-4-1)13-15-14(17-16-13)12-9-5-2-6-10-12/h1-10H,VIZNDSYPXQJMCM-UHFFFAOYSA-N,?,290.0,103474
103479,918-22-9,918-22-9,FC(F)(Br)C(F)(F)C(F)(F)C(F)(F)C(F)(F)C(F)(F)Br,"1,6-Dibromododecafluorohexane","1,6-Dibromododecafluorohexane",C6Br2F12,22440,DTXSID20335129,FC(F)(Br)C(F)(F)C(F)(F)C(F)(F)C(F)(F)C(F)(F)Br,"InChI=1S/C6Br2F12/c7-5(17,18)3(13,14)1(9,10)2(11,12)4(15,16)6(8,19)20",SWAPKQWKFYIOJS-UHFFFAOYSA-N,?,142.0,103479
103483,919-31-3,919-31-3,CCO[Si](CCC#N)(OCC)OCC,3-(Triethoxysilyl)propionitrile,3-(Triethoxysilyl)propionitrile,3-(triethoxysilyl)propanenitrile,22444,DTXSID7027334,CCO[Si](CCC#N)(OCC)OCC,"InChI=1S/C9H19NO3Si/c1-4-11-14(12-5-2,13-6-3)9-7-8-10/h4-7,9H2,1-3H3",GBQYMXVQHATSCC-UHFFFAOYSA-N,?,224.0,103483
103487,920-66-1,920-66-1,OC(C(F)(F)F)C(F)(F)F,"1,1,1,3,3,3-HEXAFLUOROPROPAN-2-OL","1,1,1,3,3,3-Hexafluoro-2-propanol","1,1,1,3,3,3-hexafluoropropan-2-ol",22448,DTXSID1022134,OC(C(F)(F)F)C(F)(F)F,"InChI=1S/C3H2F6O/c4-2(5,6)1(10)3(7,8)9/h1,10H",BYEAHWXPCBROCE-UHFFFAOYSA-N,?,59.0,103487
103493,922-63-4,922-63-4,CCC(=C)C=O,2-ETHYLPROPENAL,2-Methylenebutanal,2-methylidenebutanal,22454,DTXSID1029205,CCC(=C)C=O,"InChI=1S/C5H8O/c1-3-5(2)4-6/h4H,2-3H2,1H3",GMLDCZYTIPCVMO-UHFFFAOYSA-N,?,92.5,103493
103497,924-41-4,924-41-4,C=CC(O)CC=C,"1,5-HEXADIEN-3-OL","1,5-Hexadien-3-ol","hexa-1,5-dien-3-ol",22458,DTXSID6022135,C=CC(O)CC=C,"InChI=1S/C6H10O/c1-3-5-6(7)4-2/h3-4,6-7H,1-2,5H2",SZYLTIUVWARXOO-UHFFFAOYSA-N,?,133.5,103497
103501,925-15-5,925-15-5,CCCOC(=O)CCC(=O)OCCC,"BUTANEDIOIC ACID, DIPROPYL ESTER","Succinic acid, dipropyl ester",dipropyl butanedioate,22462,DTXSID80239018,CCCOC(=O)CCC(=O)OCCC,"InChI=1S/C10H18O4/c1-3-7-13-9(11)5-6-10(12)14-8-4-2/h3-8H2,1-2H3",SZHZCPHKDJWHNG-UHFFFAOYSA-N,?,250.8,103501
103505,926-57-8,926-57-8,CC(Cl)=CCCl,"1,3-DICHLORO-2-BUTENE","1,3-Dichloro-2-butene",C4H6Cl2,22466,DTXSID7027338,CC(Cl)=CCCl,"InChI=1S/C4H6Cl2/c1-4(6)2-3-5/h2H,3H2,1H3/b4-2-",WLIADPFXSACYLS-RQOWECAXSA-N,?,131.0,103505
103509,926-82-9,NOCAS_870798,CC(CC(C)CC)CC,"Heptane, 3,5-dimethyl-",,,22470,DTXSID30870798,CC(CC(C)CC)CC,"InChI=1S/C9H20/c1-5-8(3)7-9(4)6-2/h8-9H,5-7H2,1-4H3",DZJTZGHZAWTWGA-UHFFFAOYSA-N,?,136.0,103509
103513,927-73-1,927-73-1,C=CCCCl,4-CHLORO-1-BUTENE,"1-Butene, 4-chloro-",4-Chlorobut-1-ene,22474,DTXSID0061298,C=CCCCl,"InChI=1S/C4H7Cl/c1-2-3-4-5/h2H,1,3-4H2",WKEVRZCQFQDCIR-UHFFFAOYSA-N,?,75.0,103513
103517,928-45-0,928-45-0,CCCCO[N+]([O-])=O,BUTYL NITRATE,Butyl nitrate,BUTYL NITRATE,22478,DTXSID70239143,CCCCO[N+]([O-])=O,"InChI=1S/C4H9NO3/c1-2-3-4-8-5(6)7/h2-4H2,1H3",QQHZPQUHCAKSOL-UHFFFAOYSA-N,?,133.0,103517
103521,928-65-4,928-65-4,CCCCCC[Si](Cl)(Cl)Cl,HEXYLTRICHLOROSILANE,Trichloro(hexyl)silane,trichloro(hexyl)silane,22482,DTXSID4044741,CCCCCC[Si](Cl)(Cl)Cl,"InChI=1S/C6H13Cl3Si/c1-2-3-4-5-6-10(7,8)9/h2-6H2,1H3",LFXJGGDONSCPOF-UHFFFAOYSA-N,?,190.0,103521
103525,928-94-9|928-95-0,2305-21-7|928-95-0,CCCC=CCO,"2-HEXEN-1-OL, (Z)-, 2-Hexen-1-ol, (E)-",Hex-2-en-1-ol,hex-2-en-1-ol,22486|22487,DTXSID3051882|DTXSID2047062,CCCC=CCO,"InChI=1S/C6H12O/c1-2-3-4-5-6-7/h4-5,7H,2-3,6H2,1H3/b5-4+",ZCHHRLHTBGRGOT-SNAWJCMRSA-N,?,157.0,103525
103531,930-22-3,930-22-3,C=CC1CO1,"Oxirane, ethenyl-","1,2-Epoxy-3-butene",2-ethenyloxirane,22492,DTXSID4025240,C=CC1CO1,"InChI=1S/C4H6O/c1-2-4-3-5-4/h2,4H,1,3H2",GXBYFVGCMPJVJX-UHFFFAOYSA-N,?,68.0,103531
103535,930-36-9,930-36-9,C[n]1ccc[n]1,1-METHYLPYRAZOLE,"1H-Pyrazole, 1-methyl-",1-methylpyrazole,22496,DTXSID40239231,C[n]1ccc[n]1,"InChI=1S/C4H6N2/c1-6-4-2-3-5-6/h2-4H,1H3",UQFQONCQIQEYPJ-UHFFFAOYSA-N,?,127.0,103535
103539,930-66-5,930-66-5,ClC1CCCCC=1,"CYCLOHEXENE, 1-CHLORO-",1-Chlorocyclohexene,1-CHLOROCYCLOHEXENE,22500,DTXSID0073243,ClC1CCCCC=1,"InChI=1S/C6H9Cl/c7-6-4-2-1-3-5-6/h4H,1-3,5H2",BUAKPITZELZWNI-UHFFFAOYSA-N,?,142.5,103539
103544,931-36-2,931-36-2,Cc1c[nH]c(CC)[n]1,"1H-Imidazole, 2-ethyl-4-methyl-",2-Ethyl-4-methyl-1H-imidazole,2-ethyl-4-methyl-1H-imidazole,22505,DTXSID9044744,Cc1c[nH]c(CC)[n]1,"InChI=1S/C6H10N2/c1-3-6-7-4-5(2)8-6/h4H,3H2,1-2H3,(H,7,8)",ULKLGIFJWFIQFF-UHFFFAOYSA-N,?,293.5,103544
103548,932-66-1,NOCAS_862478,CC(=O)C1CCCCC=1,"ETHANONE, 1-(1-CYCLOHEXEN-1-YL)-",,,22509,DTXSID50862478,CC(=O)C1CCCCC=1,"InChI=1S/C8H12O/c1-7(9)8-5-3-2-4-6-8/h5H,2-4,6H2,1H3",LTYLUDGDHUEBGX-UHFFFAOYSA-N,?,201.5,103548
103553,933-98-2,933-98-2,CCc1cccc(C)c1C,"1,2-DIMETHYL-3-ETHYLBENZENE",,,22514,DTXSID00865479,CCc1cccc(C)c1C,"InChI=1S/C10H14/c1-4-10-7-5-6-8(2)9(10)3/h5-7H,4H2,1-3H3",QUBBAXISAHIDNM-UHFFFAOYSA-N,?,194.0,103553
103557,935-13-7,935-13-7,OC(=O)CCc1ccco1,3-Furan-2-yl-propionic acid,2-Furanpropionic acid,3-furan-2-ylpropanoic acid,22518,DTXSID70239446,OC(=O)CCc1ccco1,"InChI=1S/C7H8O3/c8-7(9)4-3-6-2-1-5-10-6/h1-2,5H,3-4H2,(H,8,9)",XLTJXJJMUFDQEZ-UHFFFAOYSA-N,?,229.0,103557
103561,938-16-9,938-16-9,CC(C)(C)C(=O)c1ccccc1,"2,2-DIMETHYLPROPIOPHENONE",tert-Butyl phenyl ketone,"2,2-dimethyl-1-phenylpropan-1-one",22522,DTXSID1048209,CC(C)(C)C(=O)c1ccccc1,"InChI=1S/C11H14O/c1-11(2,3)10(12)9-7-5-4-6-8-9/h4-8H,1-3H3",OECPUBRNDKXFDX-UHFFFAOYSA-N,?,220.0,103561
103565,939-48-0,939-48-0,CC(C)OC(=O)c1ccccc1,"BENZOIC ACID, 1-METHYLETHYL ESTER",Propan-2-yl benzoate,propan-2-yl benzoate,22526,DTXSID9044746,CC(C)OC(=O)c1ccccc1,"InChI=1S/C10H12O2/c1-8(2)12-10(11)9-6-4-3-5-7-9/h3-8H,1-2H3",FEXQDZTYJVXMOS-UHFFFAOYSA-N,?,216.0,103565
103569,941-98-0,941-98-0,CC(=O)c1cccc2ccccc21,ALPHA-NAPHTHYL METHYL KETONE,1'-Acetonaphthone,1-(1-naphthyl)ethanone,22530,DTXSID4052635,CC(=O)c1cccc2ccccc21,"InChI=1S/C12H10O/c1-9(13)11-8-4-6-10-5-2-3-7-12(10)11/h2-8H,1H3",QQLIGMASAVJVON-UHFFFAOYSA-N,?,297.0,103569
103573,946-80-5,NOCAS_870813,C(Oc1ccccc1)c1ccccc1,BENZYL PHENYL ETHER,,,22534,DTXSID70870813,C(Oc1ccccc1)c1ccccc1,"InChI=1S/C13H12O/c1-3-7-12(8-4-1)11-14-13-9-5-2-6-10-13/h1-10H,11H2",BOTNYLSAWDQNEX-UHFFFAOYSA-N,?,286.5,103573
103578,955-83-9,955-83-9,c1cc(oc1-c1ccccc1)-c1ccccc1,"Furan, 2,5-diphenyl-","2,5-Diphenylfuran","2,5-diphenylfuran",22538,DTXSID5022142,c1cc(oc1-c1ccccc1)-c1ccccc1,InChI=1S/C16H12O/c1-3-7-13(8-4-1)15-11-12-16(17-15)14-9-5-2-6-10-14/h1-12H,VUPDHIIPAKIKAB-UHFFFAOYSA-N,?,344.0,103578
103587,996-35-0,996-35-0,CC(C)N(C)C,"N,N-Dimethylisopropylamine",Dimethylisopropylamine,"N,N-dimethylpropan-2-amine",22542,DTXSID2033447,CC(C)N(C)C,"InChI=1S/C5H13N/c1-5(2)6(3)4/h5H,1-4H3",VMOWKUTXPNPTEN-UHFFFAOYSA-N,?,66.0,103587
103593,1000-50-6,1000-50-6,CCCC[Si](C)(C)Cl,"Silane, butylchlorodimethyl-","Silane, butylchlorodimethyl-",butyl-chloro-dimethylsilane,22546,DTXSID5061376,CCCC[Si](C)(C)Cl,"InChI=1S/C6H15ClSi/c1-4-5-6-8(2,3)7/h4-6H2,1-3H3",MXOSTENCGSDMRE-UHFFFAOYSA-N,?,139.0,103593
103597,1002-16-0,1002-16-0,CCCCCO[N+]([O-])=O,1-PENTYL NITRATE,Amyl nitrate,Pentyl nitrate,22550,DTXSID2058708,CCCCCO[N+]([O-])=O,"InChI=1S/C5H11NO3/c1-2-3-4-5-9-6(7)8/h2-5H2,1H3",HSNWZBCBUUSSQD-UHFFFAOYSA-N,?,157.0,103597
103601,1003-03-8,1003-03-8,NC1CCCC1,Cyclopentanamine,Cyclopentanamine,Cyclopentanamine,22554,DTXSID4061387,NC1CCCC1,"InChI=1S/C5H11N/c6-5-3-1-2-4-5/h5H,1-4,6H2",NISGSNTVMOOSJQ-UHFFFAOYSA-N,?,108.0,103601
103605,1003-31-2,1003-31-2,N#Cc1ccc[s]1,2-CYANOTHIOPHENE,Thiophene-2-carbonitrile,Thiophene-2-carbonitrile,22558,DTXSID10143114,N#Cc1ccc[s]1,InChI=1S/C5H3NS/c6-4-5-2-1-3-7-5/h1-3H,CUPOOAWTRIURFT-UHFFFAOYSA-N,?,192.0,103605
103610,1004-66-6,1004-66-6,COc1c(C)cccc1C,"2,6-DIMETHYLANISOLE","2,6-Dimethylanisole","2-methoxy-1,3-dimethylbenzene",22562,DTXSID40143248,COc1c(C)cccc1C,"InChI=1S/C9H12O/c1-7-5-4-6-8(2)9(7)10-3/h4-6H,1-3H3",GFNZJAUVJCGWLW-UHFFFAOYSA-N,?,182.5,103610
103614,1007-32-5,1007-32-5,CCC(=O)Cc1ccccc1,1-PHENYL-2-BUTANONE,1-Phenyl-2-butanone,1-Phenylbutan-2-one,22566,DTXSID60143462,CCC(=O)Cc1ccccc1,"InChI=1S/C10H12O/c1-2-10(11)8-9-6-4-3-5-7-9/h3-7H,2,8H2,1H3",GKDLTXYXODKDEA-UHFFFAOYSA-N,?,230.0,103614
103618,1009-14-9,1009-14-9,CCCCC(=O)c1ccccc1,"1-Pentanone, 1-phenyl-","1-Pentanone, 1-phenyl-",1-phenylpentan-1-one,22570,DTXSID0061406,CCCCC(=O)c1ccccc1,"InChI=1S/C11H14O/c1-2-3-9-11(12)10-7-5-4-6-8-10/h4-8H,2-3,9H2,1H3",XKGLSKVNOSHTAD-UHFFFAOYSA-N,?,245.0,103618
103623,1020-84-4,1020-84-4,C[Si]1(C)N[Si](C)(C)N[Si](C)(C)N[Si](C)(C)N1,"Cyclotetrasilazane, 2,2,4,4,6,6,8,8-octamethyl-","2,2,4,4,6,6,8,8-Octamethylcyclotetrasilazane","2,2,4,4,6,6,8,8-octamethyl-1,3,5,7,2,4,6,8-tetrazatetrasilocane",22574,DTXSID1051511,C[Si]1(C)N[Si](C)(C)N[Si](C)(C)N[Si](C)(C)N1,"InChI=1S/C8H28N4Si4/c1-13(2)9-14(3,4)11-16(7,8)12-15(5,6)10-13/h9-12H,1-8H3",FIADVASZMLCQIF-UHFFFAOYSA-N,?,225.0,103623
103629,1068-87-7,1068-87-7,CCC(C(C)C)C(C)C,"2,4-DIMETHYL-3-ETHYLPENTANE","3-Ethyl-2,4-dimethylpentane","3-Ethyl-2,4-dimethylpentane",22578,DTXSID10147778,CCC(C(C)C)C(C)C,"InChI=1S/C9H20/c1-6-9(7(2)3)8(4)5/h7-9H,6H2,1-5H3",VLHAGZNBWKUMRW-UHFFFAOYSA-N,?,136.7,103629
103633,1070-87-7,1070-87-7,CC(C)(C)CC(C)(C)C,"2,2,4,4-TETRAMETHYLPENTANE","Pentane, 2,2,4,4-tetramethyl- (8CI)(9CI)","2,2,4,4-Tetramethylpentane",22582,DTXSID70147870,CC(C)(C)CC(C)(C)C,"InChI=1S/C9H20/c1-8(2,3)7-9(4,5)6/h7H2,1-6H3",GUMULFRCHLJNDY-UHFFFAOYSA-N,?,122.2,103633
103637,1071-81-4,1071-81-4,CC(C)(C)CCC(C)(C)C,"2,2,5,5-TETRAMETHYLHEXANE","2,2,5,5-Tetramethylhexane","2,2,5,5-TETRAMETHYLHEXANE",22586,DTXSID90147918,CC(C)(C)CCC(C)(C)C,"InChI=1S/C10H22/c1-9(2,3)7-8-10(4,5)6/h7-8H2,1-6H3",HXQDUXXBVMMIKL-UHFFFAOYSA-N,?,137.4,103637
103641,1072-44-2,1072-44-2,CN1CC1,1-Methylaziridine,"Aziridine, 1-methyl-",1-METHYLAZIRIDINE,22590,DTXSID60147940,CN1CC1,"InChI=1S/C3H7N/c1-4-2-3-4/h2-3H2,1H3",XLJQPXVBQNJNLW-UHFFFAOYSA-N,?,27.5,103641
103645,1072-91-9,1072-91-9,Cc1cc(C)[n][n]1C,"1H-PYRAZOLE, 1,3,5-TRIMETHYL-","1,3,5-Trimethylpyrazole","1,3,5-TRIMETHYLPYRAZOLE",22594,DTXSID70147951,Cc1cc(C)[n][n]1C,"InChI=1S/C6H10N2/c1-5-4-6(2)8(3)7-5/h4H,1-3H3",HNOQAFMOBRWDKQ-UHFFFAOYSA-N,?,170.0,103645
103650,1074-17-5,1074-17-5,Cc1ccccc1CCC,1-METHYL-2-PROPYLBENZENE,1-Methyl-2-propylbenzene,1-Methyl-2-propylbenzene,22598,DTXSID4061466,Cc1ccccc1CCC,"InChI=1S/C10H14/c1-3-6-10-8-5-4-7-9(10)2/h4-5,7-8H,3,6H2,1-2H3",YQZBFMJOASEONC-UHFFFAOYSA-N,?,185.0,103650
103654,1075-74-7,1075-74-7,C=CCCCc1ccccc1,"BENZENE, 4-PENTENYL-",5-Phenyl-1-pentene,C11H14,22602,DTXSID00333744,C=CCCCc1ccccc1,"InChI=1S/C11H14/c1-2-3-5-8-11-9-6-4-7-10-11/h2,4,6-7,9-10H,1,3,5,8H2",RURREWSZSUQSNB-UHFFFAOYSA-N,?,201.0,103654
103658,1078-71-3,1078-71-3,CCCCCCCc1ccccc1,1-PHENYLHEPTANE,Heptylbenzene,Heptylbenzene,22606,DTXSID3061477,CCCCCCCc1ccccc1,"InChI=1S/C13H20/c1-2-3-4-5-7-10-13-11-8-6-9-12-13/h6,8-9,11-12H,2-5,7,10H2,1H3",LBNXAWYDQUGHGX-UHFFFAOYSA-N,?,240.0,103658
103662,1083-56-3,1083-56-3,C(CCCc1ccccc1)c1ccccc1,"BENZENE, 1,1'-(1,4-BUTANEDIYL)BIS-","Benzene, 1,1'-(1,4-butanediyl)bis- (9CI)",4-phenylbutylbenzene,22610,DTXSID60148492,C(CCCc1ccccc1)c1ccccc1,"InChI=1S/C16H18/c1-3-9-15(10-4-1)13-7-8-14-16-11-5-2-6-12-16/h1-6,9-12H,7-8,13-14H2",GLJFYGFBITUZOE-UHFFFAOYSA-N,?,317.0,103662
103667,1113-30-0,1113-30-0,CB(C)N(C)C,"N,N,1,1-Tetramethyl boranamine","Boranamine, N,N,1,1-tetramethyl-",N-dimethylboranyl-N-methylmethanamine,22614,DTXSID60149585,CB(C)N(C)C,InChI=1S/C4H12BN/c1-5(2)6(3)4/h1-4H3,BUAGRGPXYOEKCF-UHFFFAOYSA-N,?,65.0,103667
103671,1114-76-7,1114-76-7,CCCC(=O)N(CC)CC,"Butanamide, N,N-diethyl-","Butanamide, N,N-diethyl-","N,N-Diethylbutanamide",22618,DTXSID1061495,CCCC(=O)N(CC)CC,"InChI=1S/C8H17NO/c1-4-7-8(10)9(5-2)6-3/h4-7H2,1-3H3",CDQSTBHGKNNPSY-UHFFFAOYSA-N,?,206.0,103671
103676,1116-40-1,1116-40-1,CC(C)CN(CC(C)C)CC(C)C,"1-Propanamine, 2-methyl-N,N-bis(2-methylpropyl)-",Triisobutylamine,"2-methyl-N,N-bis(2-methylpropyl)propan-1-amine",22623,DTXSID7026233,CC(C)CN(CC(C)C)CC(C)C,"InChI=1S/C12H27N/c1-10(2)7-13(8-11(3)4)9-12(5)6/h10-12H,7-9H2,1-6H3",IIFFFBSAXDNJHX-UHFFFAOYSA-N,?,191.5,103676
103680,1117-59-5,1117-59-5,CCCCC(=O)OCCCCCC,"Pentanoic acid, hexyl ester","Pentanoic acid, hexyl ester",Hexyl pentanoate,22627,DTXSID3061502,CCCCC(=O)OCCCCCC,"InChI=1S/C11H22O2/c1-3-5-7-8-10-13-11(12)9-6-4-2/h3-10H2,1-2H3",YERFHJZYNMRVLO-UHFFFAOYSA-N,?,226.3,103680
103684,1119-49-9,1119-49-9,CCCCNC(C)=O,"Acetamide, N-butyl-","Acetamide, N-butyl-",N-Butylacetamide,22631,DTXSID2061511,CCCCNC(C)=O,"InChI=1S/C6H13NO/c1-3-4-5-7-6(2)8/h3-5H2,1-2H3,(H,7,8)",GYLDXXLJMRTVSS-UHFFFAOYSA-N,?,229.0,103684
103688,1120-21-4,1120-21-4,CCCCCCCCCCC,N-UNDECANE,Undecane,C11H24,22635,DTXSID9021689,CCCCCCCCCCC,"InChI=1S/C11H24/c1-3-5-7-9-11-10-8-6-4-2/h3-11H2,1-2H3",RSJKGSCJYJTIGS-UHFFFAOYSA-N,?,195.9,103688
103692,1120-59-8,1120-59-8,C1CSC=C1,"THIOPHENE, 2,3-DIHYDRO-","Thiophene, 2,3-dihydro-","2,3-Dihydrothiophene",22639,DTXSID20149809,C1CSC=C1,"InChI=1S/C4H6S/c1-2-4-5-3-1/h1,3H,2,4H2",OXBLVCZKDOZZOJ-UHFFFAOYSA-N,?,112.1,103692
103696,1120-73-6,NOCAS_870846,CC1=CCCC1=O,"2-CYCLOPENTEN-1-ONE, 2-METHYL-",,,22643,DTXSID00870846,CC1=CCCC1=O,"InChI=1S/C6H8O/c1-5-3-2-4-6(5)7/h3H,2,4H2,1H3",ZSBWUNDRDHVNJL-UHFFFAOYSA-N,?,157.0,103696
103701,1121-55-7,1121-55-7,C=Cc1c[n]ccc1,"PYRIDINE, 3-ETHENYL-",3-Vinylpyridine,3-ethenylpyridine,22647,DTXSID90149912,C=Cc1c[n]ccc1,"InChI=1S/C7H7N/c1-2-7-4-3-5-8-6-7/h2-6H,1H2",DPZYLEIWHTWHCU-UHFFFAOYSA-N,?,162.0,103701
103705,1122-60-7,1122-60-7,[O-][N+](=O)C1CCCCC1,"Cyclohexane, nitro-",Nitrocyclohexane,Nitrocyclohexane,22651,DTXSID6061529,[O-][N+](=O)C1CCCCC1,"InChI=1S/C6H11NO2/c8-7(9)6-4-2-1-3-5-6/h6H,1-5H2",NJNQUTDUIPVROZ-UHFFFAOYSA-N,?,205.0,103705
103709,1122-82-3,1122-82-3,S=C=NC1CCCCC1,"Cyclohexane, isothiocyanato-","Cyclohexane, isothiocyanato-",ISOTHIOCYANATOCYCLOHEXANE,22655,DTXSID5061532,S=C=NC1CCCCC1,"InChI=1S/C7H11NS/c9-6-8-7-4-2-1-3-5-7/h7H,1-5H2",MZSJGCPBOVTKHR-UHFFFAOYSA-N,?,220.0,103709
103714,1123-27-9,1123-27-9,CC(=O)C1(O)CCCCC1,"Ethanone, 1-(1-hydroxycyclohexyl)-","Ethanone, 1-(1-hydroxycyclohexyl)-",1-(1-Hydroxycyclohexyl)ethanone,22659,DTXSID5061536,CC(=O)C1(O)CCCCC1,"InChI=1S/C8H14O2/c1-7(9)8(10)5-3-2-4-6-8/h10H,2-6H2,1H3",JKAKPUWJSRMKFH-UHFFFAOYSA-N,?,125.5,103714
103718,1124-07-8,1124-07-8,Cc1cc(O)c(Cl)cc1Cl,"2,4-Dichloro-5-methylphenol","4,6-Dichloro-m-cresol","2,4-Dichloro-5-methylphenol",22663,DTXSID10150025,Cc1cc(O)c(Cl)cc1Cl,"InChI=1S/C7H6Cl2O/c1-4-2-7(10)6(9)3-5(4)8/h2-3,10H,1H3",NDCNJVOXMCCKBP-UHFFFAOYSA-N,?,234.0,103718
103722,1125-78-6,NOCAS_870851,Oc1cc2CCCCc2cc1,"2-NAPHTHALENOL, 5,6,7,8-TETRAHYDRO-",,,22667,DTXSID50870851,Oc1cc2CCCCc2cc1,"InChI=1S/C10H12O/c11-10-6-5-8-3-1-2-4-9(8)7-10/h5-7,11H,1-4H2",UMKXSOXZAXIOPJ-UHFFFAOYSA-N,?,275.5,103722
103726,1126-79-0,1126-79-0,CCCCOc1ccccc1,BUTYL PHENYL ETHER,Butyl phenyl ether,butoxybenzene,22671,DTXSID0022149,CCCCOc1ccccc1,"InChI=1S/C10H14O/c1-2-3-9-11-10-7-5-4-6-8-10/h4-8H,2-3,9H2,1H3",YFNONBGXNFCTMM-UHFFFAOYSA-N,?,210.0,103726
103730,1129-47-1,1129-47-1,CC(C)C(=O)OC1CCCCC1,"Propanoic acid, 2-methyl-, cyclohexyl ester","Propanoic acid, 2-methyl-, cyclohexyl ester",cyclohexyl 2-methylpropanoate,22675,DTXSID4061543,CC(C)C(=O)OC1CCCCC1,"InChI=1S/C10H18O2/c1-8(2)10(11)12-9-6-4-3-5-7-9/h8-9H,3-7H2,1-2H3",IYYXBWAISHVFEX-UHFFFAOYSA-N,?,204.0,103730
103734,1131-62-0,1131-62-0,CC(=O)c1cc(OC)c(cc1)OC,"Ethanone, 1-(3,4-dimethoxyphenyl)-","Ethanone, 1-(3,4-dimethoxyphenyl)-","1-(3,4-dimethoxyphenyl)ethanone",22679,DTXSID4061549,CC(=O)c1cc(OC)c(cc1)OC,"InChI=1S/C10H12O3/c1-7(11)8-4-5-9(12-2)10(6-8)13-3/h4-6H,1-3H3",IQZLUWLMQNGTIW-UHFFFAOYSA-N,?,287.0,103734
103739,1140-14-3,1140-14-3,Cc1cc(C)c(cc1)C(=O)c1ccccc1,"2,4-Dimethylphenyl phenyl ketone","2,4-Dimethylbenzophenone","(2,4-dimethylphenyl)-phenylmethanone",22683,DTXSID90150629,Cc1cc(C)c(cc1)C(=O)c1ccccc1,"InChI=1S/C15H14O/c1-11-8-9-14(12(2)10-11)15(16)13-6-4-3-5-7-13/h3-10H,1-2H3",UYSQHMXRROFKRN-UHFFFAOYSA-N,?,321.5,103739
103743,1185-33-7,1185-33-7,CCC(C)(C)CO,"2,2-DIMETHYL-1-BUTANOL","2,2-Dimethylbutanol","2,2-Dimethylbutan-1-ol",22687,DTXSID00152139,CCC(C)(C)CO,"InChI=1S/C6H14O/c1-4-6(2,3)5-7/h7H,4-5H2,1-3H3",XRMVWAKMXZNZIL-UHFFFAOYSA-N,?,136.5,103743
103747,1187-58-2,1187-58-2,CCC(=O)NC,N-METHYL PROPIONAMIDE,"Propanamide, N-methyl-",N-Methylpropanamide,22691,DTXSID0061583,CCC(=O)NC,"InChI=1S/C4H9NO/c1-3-4(6)5-2/h3H2,1-2H3,(H,5,6)",QJQAMHYHNCADNR-UHFFFAOYSA-N,?,148.0,103747
103751,1190-22-3,NOCAS_870855,CC(Cl)CCCl,"Butane, 1,3-dichloro-",,,22695,DTXSID90870855,CC(Cl)CCCl,"InChI=1S/C4H8Cl2/c1-4(6)2-3-5/h4H,2-3H2,1H3",QBGVARBIQGHVKR-UHFFFAOYSA-N,?,134.0,103751