ChemID,source_casrn,CAS,SMILES,NAME,preferred_name,iupac,MPID,dsstox_substance_id,Canonical_QSARr,InChI_Code_QSARr,InChI Key_QSARr,Salt_Solvent,BP,ID
103056,629-73-2,629-73-2,CCCCCCCCCCCCCCC=C,1-HEXADECENE,1-Hexadecene,hexadec-1-ene,22036,DTXSID1027269,CCCCCCCCCCCCCCC=C,"InChI=1S/C16H32/c1-3-5-7-9-11-13-15-16-14-12-10-8-6-4-2/h3H,1,4-16H2,2H3",GQEZCXVZFLOKMC-UHFFFAOYSA-N,?,284.9,103056
103058,629-78-7,629-78-7,CCCCCCCCCCCCCCCCC,HEPTADECANE,Heptadecane,heptadecane,22038,DTXSID7047061,CCCCCCCCCCCCCCCCC,"InChI=1S/C17H36/c1-3-5-7-9-11-13-15-17-16-14-12-10-8-6-4-2/h3-17H2,1-2H3",NDJKXXJCMXVBJW-UHFFFAOYSA-N,?,302.0,103058
103059,629-79-8,629-79-8,CCCCCCCCCCCCCCCC#N,Hexadecanenitrile,Hexadecanenitrile,hexadecanenitrile,22039,DTXSID5027271,CCCCCCCCCCCCCCCC#N,"InChI=1S/C16H31N/c1-2-3-4-5-6-7-8-9-10-11-12-13-14-15-16-17/h2-15H2,1H3",WGXGAUQEMYSVJM-UHFFFAOYSA-N,?,333.0,103059
103060,629-82-3,NOCAS_862324,CCCCCCCCOCCCCCCCC,"Octane, 1,1'-oxybis-",,,22040,DTXSID20862324,CCCCCCCCOCCCCCCCC,"InChI=1S/C16H34O/c1-3-5-7-9-11-13-15-17-16-14-12-10-8-6-4-2/h3-16H2,1-2H3",NKJOXAZJBOMXID-UHFFFAOYSA-N,?,283.0,103060
103062,629-92-5,629-92-5,CCCCCCCCCCCCCCCCCCC,NONADECANE,Nonadecane,nonadecane,22042,DTXSID9047170,CCCCCCCCCCCCCCCCCCC,"InChI=1S/C19H40/c1-3-5-7-9-11-13-15-17-19-18-16-14-12-10-8-6-4-2/h3-19H2,1-2H3",LQERIDTXQFOHKA-UHFFFAOYSA-N,?,329.9,103062
103063,629-93-6,629-93-6,CCCCCCCCCCCCCCCCCCI,1-IODOOCTADECANE,"Octadecane, 1-iodo-",1-Iodooctadecane,22043,DTXSID7060881,CCCCCCCCCCCCCCCCCCI,"InChI=1S/C18H37I/c1-2-3-4-5-6-7-8-9-10-11-12-13-14-15-16-17-18-19/h2-18H2,1H3",ZNJOCVLVYVOUGB-UHFFFAOYSA-N,?,383.0,103063
103064,629-94-7,629-94-7,CCCCCCCCCCCCCCCCCCCCC,HENEICOSANE,Heneicosane,henicosane,22044,DTXSID9047097,CCCCCCCCCCCCCCCCCCCCC,"InChI=1S/C21H44/c1-3-5-7-9-11-13-15-17-19-21-20-18-16-14-12-10-8-6-4-2/h3-21H2,1-2H3",FNAZRRHPUDJQCJ-UHFFFAOYSA-N,?,356.5,103064
103066,629-97-0,629-97-0,CCCCCCCCCCCCCCCCCCCCCC,DOCOSANE,Docosane,docosane,22046,DTXSID7047063,CCCCCCCCCCCCCCCCCCCCCC,"InChI=1S/C22H46/c1-3-5-7-9-11-13-15-17-19-21-22-20-18-16-14-12-10-8-6-4-2/h3-22H2,1-2H3",HOWGUJZVBDQJKV-UHFFFAOYSA-N,?,368.6,103066
103067,629-99-2,629-99-2,CCCCCCCCCCCCCCCCCCCCCCCCC,PENTACOSANE,Pentacosane,PENTACOSANE,22047,DTXSID2060882,CCCCCCCCCCCCCCCCCCCCCCCCC,"InChI=1S/C25H52/c1-3-5-7-9-11-13-15-17-19-21-23-25-24-22-20-18-16-14-12-10-8-6-4-2/h3-25H2,1-2H3",YKNWIILGEFFOPE-UHFFFAOYSA-N,?,401.9,103067
103068,630-01-3,630-01-3,CCCCCCCCCCCCCCCCCCCCCCCCCC,HEXACOSANE,Hexacosane,HEXACOSANE,22048,DTXSID7060883,CCCCCCCCCCCCCCCCCCCCCCCCCC,"InChI=1S/C26H54/c1-3-5-7-9-11-13-15-17-19-21-23-25-26-24-22-20-18-16-14-12-10-8-6-4-2/h3-26H2,1-2H3",HMSWAIKSFDFLKN-UHFFFAOYSA-N,?,412.2,103068
103070,630-03-5,630-03-5,CCCCCCCCCCCCCCCCCCCCCCCCCCCCC,NONACOSANE,Nonacosane,Nonacosane,22050,DTXSID2060884,CCCCCCCCCCCCCCCCCCCCCCCCCCCCC,"InChI=1S/C29H60/c1-3-5-7-9-11-13-15-17-19-21-23-25-27-29-28-26-24-22-20-18-16-14-12-10-8-6-4-2/h3-29H2,1-2H3",IGGUPRCHHJZPBS-UHFFFAOYSA-N,?,440.8,103070
103071,630-04-6,630-04-6,CCCCCCCCCCCCCCCCCCCCCCCCCCCCCCC,HENTRIACONTANE,Hentriacontane,Hentriacontane,22051,DTXSID0075443,CCCCCCCCCCCCCCCCCCCCCCCCCCCCCCC,"InChI=1S/C31H64/c1-3-5-7-9-11-13-15-17-19-21-23-25-27-29-31-30-28-26-24-22-20-18-16-14-12-10-8-6-4-2/h3-31H2,1-2H3",IUJAMGNYPWYUPM-UHFFFAOYSA-N,?,458.0,103071
103072,630-07-9,630-07-9,CCCCCCCCCCCCCCCCCCCCCCCCCCCCCCCCCCC,N-PENTATRIACONTANE,Pentatriacontane,Pentatriacontane,22052,DTXSID9074723,CCCCCCCCCCCCCCCCCCCCCCCCCCCCCCCCCCC,"InChI=1S/C35H72/c1-3-5-7-9-11-13-15-17-19-21-23-25-27-29-31-33-35-34-32-30-28-26-24-22-20-18-16-14-12-10-8-6-4-2/h3-35H2,1-2H3",VHQQPFLOGSTQPC-UHFFFAOYSA-N,?,490.0,103072
103074,630-17-1,630-17-1,CC(C)(C)CBr,"Propane, 1-bromo-2,2-dimethyl-","Propane, 1-bromo-2,2-dimethyl-","1-Bromo-2,2-dimethylpropane",22054,DTXSID2060886,CC(C)(C)CBr,"InChI=1S/C5H11Br/c1-5(2,3)4-6/h4H2,1-3H3",CQWYAXCOVZKLHY-UHFFFAOYSA-N,?,106.0,103074
103075,630-18-2,630-18-2,CC(C)(C)C#N,TRIMETHYLACETONITRILE,"Propanenitrile, 2,2-dimethyl-","2,2-Dimethylpropanenitrile",22055,DTXSID7060887,CC(C)(C)C#N,"InChI=1S/C5H9N/c1-5(2,3)4-6/h1-3H3",JAMNHZBIQDNHMM-UHFFFAOYSA-N,?,106.1,103075
103076,630-19-3,630-19-3,CC(C)(C)C=O,PIVALALDEHYDE,"Propanal, 2,2-dimethyl-","2,2-Dimethylpropanal",22056,DTXSID2060888,CC(C)(C)C=O,"InChI=1S/C5H10O/c1-5(2,3)4-6/h4H,1-3H3",FJJYHTVHBVXEEQ-UHFFFAOYSA-N,?,77.5,103076
103078,630-76-2,630-76-2,c1ccccc1C(c1ccccc1)(c1ccccc1)c1ccccc1,Tetraphenylmethane,"Methane, tetraphenyl-",tri(phenyl)methylbenzene,22058,DTXSID30212215,c1ccccc1C(c1ccccc1)(c1ccccc1)c1ccccc1,"InChI=1S/C25H20/c1-5-13-21(14-6-1)25(22-15-7-2-8-16-22,23-17-9-3-10-18-23)24-19-11-4-12-20-24/h1-20H",PEQHIRFAKIASBK-UHFFFAOYSA-N,?,431.0,103078
103079,631-36-7,631-36-7,CC[Si](CC)(CC)CC,TETRAETHYLSILANE,"Silane, tetraethyl-",TETRAETHYLSILANE,22059,DTXSID1060891,CC[Si](CC)(CC)CC,"InChI=1S/C8H20Si/c1-5-9(6-2,7-3)8-4/h5-8H2,1-4H3",VCZQFJFZMMALHB-UHFFFAOYSA-N,?,154.7,103079
103080,631-57-2,631-57-2,CC(=O)C#N,"PROPANENITRILE, 2-OXO-",2-Oxopropiononitrile,ACETYL CYANIDE,22060,DTXSID10212430,CC(=O)C#N,InChI=1S/C3H3NO/c1-3(5)2-4/h1H3,QLDHWVVRQCGZLE-UHFFFAOYSA-N,?,92.3,103080
103082,632-14-4,632-14-4,CNC(=O)N(C)C,"UREA, TRIMETHYL-","N,N',N'-Trimethylurea","1,1,3-Trimethylurea",22062,DTXSID80212548,CNC(=O)N(C)C,"InChI=1S/C4H10N2O/c1-5-4(7)6(2)3/h1-3H3,(H,5,7)",COSWCAGTKRUTQV-UHFFFAOYSA-N,?,232.5,103082
103083,632-16-6,632-16-6,Cc1cc[s]c1C,"THIOPHENE, 2,3-DIMETHYL-","2,3-Dimethylthiophene","2,3-Dimethylthiophene",22063,DTXSID50212550,Cc1cc[s]c1C,"InChI=1S/C6H8S/c1-5-3-4-7-6(5)2/h3-4H,1-2H3",BZYUMXXOAYSFOW-UHFFFAOYSA-N,?,141.6,103083
103084,632-21-3,632-21-3,O=C(C(Cl)Cl)C(Cl)Cl,"2-PROPANONE, 1,1,3,3-TETRACHLORO-","1,1,3,3-Tetrachloropropanone","1,1,3,3-tetrachloropropan-2-one",22064,DTXSID1021663,O=C(C(Cl)Cl)C(Cl)Cl,InChI=1S/C3H2Cl4O/c4-2(5)1(8)3(6)7/h2-3H,DJWVKJAGMVZYFP-UHFFFAOYSA-N,?,183.0,103084
103086,632-46-2,632-46-2,Cc1cccc(C)c1C(O)=O,"2,6-DIMETHYLBENZOIC ACID","Benzoic acid, 2,6-dimethyl-","2,6-DIMETHYLBENZOIC ACID",22066,DTXSID10212551,Cc1cccc(C)c1C(O)=O,"InChI=1S/C9H10O2/c1-6-4-3-5-7(2)8(6)9(10)11/h3-5H,1-2H3,(H,10,11)",HCBHQDKBSKYGCK-UHFFFAOYSA-N,?,274.5,103086
103087,632-51-9,632-51-9,c1ccccc1C(=C(c1ccccc1)c1ccccc1)c1ccccc1,"Benzene, 1,1',1'',1'''-(1,2-ethenediylidene)tetr","Benzene, 1,1',1'',1'''-(1,2-ethenediylidene)tetrakis-","1,2,2-tri(phenyl)ethenylbenzene",22067,DTXSID1060895,c1ccccc1C(=C(c1ccccc1)c1ccccc1)c1ccccc1,InChI=1S/C26H20/c1-5-13-21(14-6-1)25(22-15-7-2-8-16-22)26(23-17-9-3-10-18-23)24-19-11-4-12-20-24/h1-20H,JLZUZNKTTIRERF-UHFFFAOYSA-N,?,420.0,103087
103088,634-36-6,634-36-6,COc1c(cccc1OC)OC,"BENZENE, 1,2,3-TRIMETHOXY-","Benzene, 1,2,3-trimethoxy-","1,2,3-Trimethoxybenzene",22068,DTXSID1060899,COc1c(cccc1OC)OC,"InChI=1S/C9H12O3/c1-10-7-5-4-6-8(11-2)9(7)12-3/h4-6H,1-3H3",CRUILBNAQILVHZ-UHFFFAOYSA-N,?,235.0,103088
103090,634-66-2,634-66-2,Clc1ccc(Cl)c(Cl)c1Cl,"1,2,3,4-TETRACHLOROBENZENE","1,2,3,4-Tetrachlorobenzene","1,2,3,4-tetrachlorobenzene",22070,DTXSID6026088,Clc1ccc(Cl)c(Cl)c1Cl,InChI=1S/C6H2Cl4/c7-3-1-2-4(8)6(10)5(3)9/h1-2H,GBDZXPJXOMHESU-UHFFFAOYSA-N,?,254.0,103090
103091,634-67-3,634-67-3,Nc1ccc(Cl)c(Cl)c1Cl,"2,3,4-TRICHLOROANILINE","2,3,4-Trichloroaniline","2,3,4-trichloroaniline",22071,DTXSID2022098,Nc1ccc(Cl)c(Cl)c1Cl,"InChI=1S/C6H4Cl3N/c7-3-1-2-4(10)6(9)5(3)8/h1-2H,10H2",RRJUYQOFOMFVQS-UHFFFAOYSA-N,?,292.0,103091
103092,634-89-9,634-89-9,Brc1cc(Br)c(Br)c(Br)c1,"1,2,3,5-TETRABROMOBENZENE","Benzene, 1,2,3,5-tetrabromo-","1,2,3,5-TETRABROMOBENZENE",22072,DTXSID8073924,Brc1cc(Br)c(Br)c(Br)c1,InChI=1S/C6H2Br4/c7-3-1-4(8)6(10)5(9)2-3/h1-2H,YPFCYPZKFQPCOC-UHFFFAOYSA-N,?,329.0,103092
103094,635-11-0,NOCAS_870739,CC(C)c1cc(C(C)C)c(cc1C(C)C)C(C)C,"BENZENE, 1,2,4,5-TETRAKIS(1-METHYLETHYL)-",,,22074,DTXSID90870739,CC(C)c1cc(C(C)C)c(cc1C(C)C)C(C)C,"InChI=1S/C18H30/c1-11(2)15-9-17(13(5)6)18(14(7)8)10-16(15)12(3)4/h9-14H,1-8H3",ROXLYQQDLJJEBE-UHFFFAOYSA-N,?,259.0,103094
103095,635-27-8,635-27-8,Clc1cccc2[n]cccc21,5-Chloroquinoline,5-Chloroquinoline,5-Chloroquinoline,22075,DTXSID20212901,Clc1cccc2[n]cccc21,InChI=1S/C9H6ClN/c10-8-4-1-5-9-7(8)3-2-6-11-9/h1-6H,HJSRGOVAIOPERP-UHFFFAOYSA-N,?,256.0,103095
103096,635-46-1,635-46-1,C1CCNc2ccccc21,"1,2,3,4-TETRAHYDROQUINOLINE","1,2,3,4-Tetrahydroquinoline","1,2,3,4-Tetrahydroquinoline",22076,DTXSID8060903,C1CCNc2ccccc21,"InChI=1S/C9H11N/c1-2-6-9-8(4-1)5-3-7-10-9/h1-2,4,6,10H,3,5,7H2",LBUJPTNKIBCYBY-UHFFFAOYSA-N,?,251.0,103096
103098,636-09-9,636-09-9,CCOC(=O)c1ccc(cc1)C(=O)OCC,"1,4-Benzenedicarboxylic acid, diethyl ester",Diethyl terephthalate,"diethyl benzene-1,4-dicarboxylate",22078,DTXSID8060909,CCOC(=O)c1ccc(cc1)C(=O)OCC,"InChI=1S/C12H14O4/c1-3-15-11(13)9-5-7-10(8-6-9)12(14)16-4-2/h5-8H,3-4H2,1-2H3",ONIHPYYWNBVMID-UHFFFAOYSA-N,?,302.0,103098
103099,636-21-5,636-21-5,Cl.Cc1ccccc1N,2-METHYLBENZENAMINE HYDROCHLORIDE,2-Methylaniline hydrochloride,2-methylaniline hydrochloride (1:1),22079,DTXSID7021364,Cc1ccccc1N,"InChI=1S/C7H9N/c1-6-4-2-3-5-7(6)8/h2-5H,8H2,1H3",RNVCVTLRINQCPJ-UHFFFAOYSA-N,Cl,242.2,103099
103100,636-30-6,636-30-6,Nc1cc(Cl)c(Cl)cc1Cl,"2,4,5-TRICHLOROANILINE","2,4,5-Trichloroaniline","2,4,5-trichloroaniline",22080,DTXSID5044152,Nc1cc(Cl)c(Cl)cc1Cl,"InChI=1S/C6H4Cl3N/c7-3-1-5(9)6(10)2-4(3)8/h1-2H,10H2",GUMCAKKKNKYFEB-UHFFFAOYSA-N,?,270.0,103100
103102,636-53-3,636-53-3,CCOC(=O)c1cc(ccc1)C(=O)OCC,"1,3-Benzenedicarboxylic acid, diethyl ester","1,3-Benzenedicarboxylic acid, diethyl ester","diethyl benzene-1,3-dicarboxylate",22082,DTXSID5027277,CCOC(=O)c1cc(ccc1)C(=O)OCC,"InChI=1S/C12H14O4/c1-3-15-11(13)9-6-5-7-10(8-9)12(14)16-4-2/h5-8H,3-4H2,1-2H3",JLVWYWVLMFVCDI-UHFFFAOYSA-N,?,302.0,103102
103103,636-72-6,636-72-6,OCc1ccc[s]1,2-HYDROXYMETHYLTHIOPHENE,2-Thienylmethanol,thiophen-2-ylmethanol,22083,DTXSID50212979,OCc1ccc[s]1,"InChI=1S/C5H6OS/c6-4-5-2-1-3-7-5/h1-3,6H,4H2",ZPHGMBGIFODUMF-UHFFFAOYSA-N,?,207.0,103103
103104,636-82-8,636-82-8,OC(=O)C1CCCCC=1,1-CYCLOHEXENE-1-CARBOXYLIC ACID,1-Cyclohexenecarboxylic acid,cyclohexene-1-carboxylic acid,22084,DTXSID20212981,OC(=O)C1CCCCC=1,"InChI=1S/C7H10O2/c8-7(9)6-4-2-1-3-5-6/h4H,1-3,5H2,(H,8,9)",NMEZJSDUZQOPFE-UHFFFAOYSA-N,?,241.0,103104
103106,637-27-4,637-27-4,CCC(=O)Oc1ccccc1,"Propanoic acid, phenyl ester","Propanoic acid, phenyl ester",PHENYL PROPANOATE,22086,DTXSID7060916,CCC(=O)Oc1ccccc1,"InChI=1S/C9H10O2/c1-2-9(10)11-8-6-4-3-5-7-8/h3-7H,2H2,1H3",DYUMLJSJISTVPV-UHFFFAOYSA-N,?,211.0,103106
103107,637-50-3|873-66-5,637-50-3,CC=Cc1ccccc1,"BETA-METHYLSTYRENE, TRANS-1-PHENYL-1-PROPENE",Propenylbenzene,?,22087|22413,DTXSID2060919,CC=Cc1ccccc1,"InChI=1S/C9H10/c1-2-6-9-7-4-3-5-8-9/h2-8H,1H3/b6-2+",QROGIFZRVHSFLM-QHHAFSJGSA-N,?,176.9,103107
103108,637-59-2,637-59-2,BrCCCc1ccccc1,"PROPYLBROMIDE, G-PHENYL",(3-Bromopropyl)benzene,3-bromopropylbenzene,22088,DTXSID1060924,BrCCCc1ccccc1,"InChI=1S/C9H11Br/c10-8-4-7-9-5-2-1-3-6-9/h1-3,5-6H,4,7-8H2",XMZQWZJMTBCUFT-UHFFFAOYSA-N,?,219.5,103108
103110,637-65-0,NOCAS_862336,CCC(=O)OCC1CCCO1,"2-Furanmethanol, tetrahydro-, propanoate",,,22090,DTXSID90862336,CCC(=O)OCC1CCCO1,"InChI=1S/C8H14O3/c1-2-8(9)11-6-7-4-3-5-10-7/h7H,2-6H2,1H3",FMKCDSXOYLTWBR-UHFFFAOYSA-N,?,205.5,103110
103111,637-69-4,637-69-4,COc1ccc(C=C)cc1,"BENZENE, 1-ETHENYL-4-METHOXY-","Benzene, 1-ethenyl-4-methoxy-",1-ethenyl-4-methoxybenzene,22091,DTXSID7073222,COc1ccc(C=C)cc1,"InChI=1S/C9H10O/c1-3-8-4-6-9(10-2)7-5-8/h3-7H,1H2,2H3",UAJRSHJHFRVGMG-UHFFFAOYSA-N,?,205.0,103111
103112,637-78-5,637-78-5,CCC(=O)OC(C)C,ISOPROPYL PROPIONATE,"Propanoic acid, 1-methylethyl ester",propan-2-yl propanoate,22092,DTXSID6060927,CCC(=O)OC(C)C,"InChI=1S/C6H12O2/c1-4-6(7)8-5(2)3/h5H,4H2,1-3H3",IJMWOMHMDSDKGK-UHFFFAOYSA-N,?,109.5,103112
103114,637-92-3,637-92-3,CCOC(C)(C)C,ETHYL T-BUTYL ETHER,2-Methyl-2-ethoxypropane,tert-butyl ethyl ether,22094,DTXSID0025604,CCOC(C)(C)C,"InChI=1S/C6H14O/c1-5-7-6(2,3)4/h5H2,1-4H3",NUMQCACRALPSHD-UHFFFAOYSA-N,?,73.1,103114
103115,637-97-8,NOCAS_870740,CCCC(C)I,2-IODOPENTANE,,,22095,DTXSID00870740,CCCC(C)I,"InChI=1S/C5H11I/c1-3-4-5(2)6/h5H,3-4H2,1-2H3",JUPBFIYJUCWJCT-UHFFFAOYSA-N,?,150.0,103115
103116,638-00-6,638-00-6,Cc1c[s]c(C)c1,"THIOPHENE, 2,4-DIMETHYL-","2,4-Dimethylthiophene","2,4-Dimethylthiophene",22096,DTXSID40213238,Cc1c[s]c(C)c1,"InChI=1S/C6H8S/c1-5-3-6(2)7-4-5/h3-4H,1-2H3",CPULIKNSOUFMPL-UHFFFAOYSA-N,?,140.7,103116
103119,638-10-8,638-10-8,CC(C)=CC(=O)OCC,"2-Butenoic acid, 3-methyl-, ethyl ester","2-Butenoic acid, 3-methyl-, ethyl ester",ethyl 3-methylbut-2-enoate,22099,DTXSID0060931,CC(C)=CC(=O)OCC,"InChI=1S/C7H12O2/c1-4-9-7(8)5-6(2)3/h5H,4H2,1-3H3",UTXVCHVLDOLVPC-UHFFFAOYSA-N,?,153.5,103119
103120,638-11-9,638-11-9,CCCC(=O)OC(C)C,"BUTANOIC ACID, 1-METHYLETHYL ESTER","Butanoic acid, 1-methylethyl ester",propan-2-yl butanoate,22100,DTXSID5075288,CCCC(=O)OC(C)C,"InChI=1S/C7H14O2/c1-4-5-7(8)9-6(2)3/h6H,4-5H2,1-3H3",FFOPEPMHKILNIT-UHFFFAOYSA-N,?,130.5,103120
103121,638-21-1,638-21-1,Pc1ccccc1,PHENYLPHOSPHINE,Phenylphosphine,phenylphosphane,22101,DTXSID7073224,Pc1ccccc1,"InChI=1S/C6H7P/c7-6-4-2-1-3-5-6/h1-5H,7H2",RPGWZZNNEUHDAQ-UHFFFAOYSA-N,?,160.5,103121
103123,638-28-8,NOCAS_867751,CCCCC(C)Cl,2-CHLOROHEXANE,,,22103,DTXSID00867751,CCCCC(C)Cl,"InChI=1S/C6H13Cl/c1-3-4-5-6(2)7/h6H,3-5H2,1-2H3",GLCIPJOIEVLTPR-UHFFFAOYSA-N,?,122.5,103123
103124,638-29-9,638-29-9,CCCCC(=O)Cl,Pentanoyl chloride,Valeryl chloride,pentanoyl chloride,22104,DTXSID2034091,CCCCC(=O)Cl,"InChI=1S/C5H9ClO/c1-2-3-4-5(6)7/h2-4H2,1H3",XGISHOFUAFNYQF-UHFFFAOYSA-N,?,109.0,103124
103125,638-45-9,638-45-9,CCCCCCI,1-IODOHEXANE,"Hexane,1-iodo-",1-iodohexane,22105,DTXSID2049341,CCCCCCI,"InChI=1S/C6H13I/c1-2-3-4-5-6-7/h2-6H2,1H3",ANOOTOPTCJRUPK-UHFFFAOYSA-N,?,181.0,103125
103128,638-53-9,638-53-9,CCCCCCCCCCCCC(O)=O,TRIDECANOIC ACID,Tridecanoic acid,tridecanoic acid,22107,DTXSID4021684,CCCCCCCCCCCCC(O)=O,"InChI=1S/C13H26O2/c1-2-3-4-5-6-7-8-9-10-11-12-13(14)15/h2-12H2,1H3,(H,14,15)",SZHOJFHSIKHZHA-UHFFFAOYSA-N,?,312.4,103128
103129,638-65-3,638-65-3,CCCCCCCCCCCCCCCCCC#N,Octadecanenitrile,Octadecanenitrile,octadecanenitrile,22108,DTXSID4027280,CCCCCCCCCCCCCCCCCC#N,"InChI=1S/C18H35N/c1-2-3-4-5-6-7-8-9-10-11-12-13-14-15-16-17-18-19/h2-17H2,1H3",RHSBIGNQEIPSCT-UHFFFAOYSA-N,?,362.0,103129
103130,638-67-5,638-67-5,CCCCCCCCCCCCCCCCCCCCCCC,TRICOSANE,Tricosane,tricosane,22109,DTXSID7047699,CCCCCCCCCCCCCCCCCCCCCCC,"InChI=1S/C23H48/c1-3-5-7-9-11-13-15-17-19-21-23-22-20-18-16-14-12-10-8-6-4-2/h3-23H2,1-2H3",FIGVVZUWCLSUEI-UHFFFAOYSA-N,?,380.0,103130
103132,638-79-9,638-79-9,FC(F)(F)C(F)(F)C(F)(F)C(F)(F)C(F)(F)I,"Pentane, undecafluoro-5-iodo-","Pentane, 1,1,1,2,2,3,3,4,4,5,5-undecafluoro-5-iodo-","1,1,1,2,2,3,3,4,4,5,5-undecafluoro-5-iodopentane",22111,DTXSID5060936,FC(F)(F)C(F)(F)C(F)(F)C(F)(F)C(F)(F)I,"InChI=1S/C5F11I/c6-1(7,2(8,9)4(12,13)14)3(10,11)5(15,16)17",KCEJJSGJNCSQFI-UHFFFAOYSA-N,?,94.4,103132
103133,641-96-3,641-96-3,c1cccc(c1-c1ccccc1)-c1ccccc1-c1ccccc1,"1,1':2',1'':2'',1'''-QUATERPHENYL",o-Quaterphenyl (8CI),1-phenyl-2-(2-phenylphenyl)benzene,22112,DTXSID20214309,c1cccc(c1-c1ccccc1)-c1ccccc1-c1ccccc1,InChI=1S/C24H18/c1-3-11-19(12-4-1)21-15-7-9-17-23(21)24-18-10-8-16-22(24)20-13-5-2-6-14-20/h1-18H,YAVCXSHORWKJQQ-UHFFFAOYSA-N,?,420.0,103133
103134,643-28-7,643-28-7,CC(C)c1ccccc1N,"BENZENAMINE, 2-(1-METHYLETHYL)-",2-Isopropylaniline,2-isopropylaniline,22113,DTXSID6052328,CC(C)c1ccccc1N,"InChI=1S/C9H13N/c1-7(2)8-5-3-4-6-9(8)10/h3-7H,10H2,1-2H3",YKOLZVXSPGIIBJ-UHFFFAOYSA-N,?,221.0,103134
103136,643-65-2,643-65-2,Cc1cc(ccc1)C(=O)c1ccccc1,3-Methylphenyl phenyl ketone,3-Methylbenzophenone,(3-methylphenyl)-phenylmethanone,22115,DTXSID40214528,Cc1cc(ccc1)C(=O)c1ccccc1,"InChI=1S/C14H12O/c1-11-6-5-9-13(10-11)14(15)12-7-3-2-4-8-12/h2-10H,1H3",URBLVRAVOIVZFJ-UHFFFAOYSA-N,?,317.0,103136
103137,643-93-6,643-93-6,Cc1cc(ccc1)-c1ccccc1,3-METHYLBIPHENYL,3-Methylbiphenyl,1-methyl-3-phenylbenzene,22116,DTXSID4060941,Cc1cc(ccc1)-c1ccccc1,"InChI=1S/C13H12/c1-11-6-5-9-13(10-11)12-7-3-2-4-8-12/h2-10H,1H3",NPDIDUXTRAITDE-UHFFFAOYSA-N,?,272.7,103137
103138,644-08-6,644-08-6,Cc1ccc(cc1)-c1ccccc1,"4-METHYL-1,1'-BIPHENYL",4-Phenyltoluene,4-methylbiphenyl,22117,DTXSID4047177,Cc1ccc(cc1)-c1ccccc1,"InChI=1S/C13H12/c1-11-7-9-13(10-8-11)12-5-3-2-4-6-12/h2-10H,1H3",ZZLCFHIKESPLTH-UHFFFAOYSA-N,?,267.5,103138
103140,644-35-9,644-35-9,CCCc1ccccc1O,O-PROPYLPHENOL,2-Propylphenol,2-propylphenol,22119,DTXSID9047702,CCCc1ccccc1O,"InChI=1S/C9H12O/c1-2-5-8-6-3-4-7-9(8)10/h3-4,6-7,10H,2,5H2,1H3",LCHYEKKJCUJAKN-UHFFFAOYSA-N,?,220.0,103140
103141,644-49-5,644-49-5,CCCOC(=O)C(C)C,PROPYL ISOBUTYRATE,Propyl isobutyrate,Propyl 2-methylpropanoate,22120,DTXSID30214653,CCCOC(=O)C(C)C,"InChI=1S/C7H14O2/c1-4-5-9-7(8)6(2)3/h6H,4-5H2,1-3H3",AZFUASHXSOTBNU-UHFFFAOYSA-N,?,135.4,103141
103142,644-97-3,644-97-3,ClP(Cl)c1ccccc1,"Phosphonous dichloride, phenyl-",Phenyl phosphorus dichloride,phenylphosphonous dichloride,22121,DTXSID4027282,ClP(Cl)c1ccccc1,InChI=1S/C6H5Cl2P/c7-9(8)6-4-2-1-3-5-6/h1-5H,IMDXZWRLUZPMDH-UHFFFAOYSA-N,?,225.0,103142
103144,645-09-0,645-09-0,NC(=O)c1cc(ccc1)[N+]([O-])=O,M-NITROBENZAMIDE,3-Nitrobenzamide,3-nitrobenzamide,22123,DTXSID5025732,NC(=O)c1cc(ccc1)[N+]([O-])=O,"InChI=1S/C7H6N2O3/c8-7(10)5-2-1-3-6(4-5)9(11)12/h1-4H,(H2,8,10)",KWAYEPXDGHYGRW-UHFFFAOYSA-N,?,312.5,103144
103145,645-13-6,645-13-6,CC(=O)c1ccc(cc1)C(C)C,P-ISOPROPYLACETOPHENONE,1-[4-(1-Methylethyl)phenyl]ethan-1-one,1-(4-isopropylphenyl)ethanone,22124,DTXSID0052330,CC(=O)c1ccc(cc1)C(C)C,"InChI=1S/C11H14O/c1-8(2)10-4-6-11(7-5-10)9(3)12/h4-8H,1-3H3",PDLCCNYKIIUWHA-UHFFFAOYSA-N,?,254.0,103145
103146,645-36-3,645-36-3,CCOC(CN)OCC,"Ethanamine, 2,2-diethoxy-","Ethanamine, 2,2-diethoxy-","2,2-diethoxyethanamine",22125,DTXSID4060945,CCOC(CN)OCC,"InChI=1S/C6H15NO2/c1-3-8-6(5-7)9-4-2/h6H,3-5,7H2,1-2H3",HJKLEAOXCZIMPI-UHFFFAOYSA-N,?,163.0,103146
103148,645-56-7,645-56-7,CCCc1ccc(O)cc1,4-PROPYLPHENOL,4-Propylphenol,4-propylphenol,22127,DTXSID9022100,CCCc1ccc(O)cc1,"InChI=1S/C9H12O/c1-2-3-8-4-6-9(10)7-5-8/h4-7,10H,2-3H2,1H3",KLSLBUSXWBJMEC-UHFFFAOYSA-N,?,232.6,103148
103149,645-59-0,645-59-0,N#CCCc1ccccc1,BENZYLACETONITRILE,Benzenepropanenitrile,3-Phenylpropanenitrile,22128,DTXSID4060949,N#CCCc1ccccc1,"InChI=1S/C9H9N/c10-8-4-7-9-5-2-1-3-6-9/h1-3,5-6H,4,7H2",ACRWYXSKEHUQDB-UHFFFAOYSA-N,?,261.0,103149
103150,645-62-5,645-62-5,CCCC=C(CC)C=O,2-ETHYL-2-HEXENAL,2-Ethyl-2-hexenal,2-ethylhex-2-enal,22129,DTXSID4025296,CCCC=C(CC)C=O,"InChI=1S/C8H14O/c1-3-5-6-8(4-2)7-9/h6-7H,3-5H2,1-2H3/b8-6-",PYLMCYQHBRSDND-VURMDHGXSA-N,?,195.0,103150
103154,646-06-0,646-06-0,C1OCCO1,"1,3-DIOXALANE","1,3-Dioxolane","1,3-dioxolane",22132,DTXSID4027284,C1OCCO1,InChI=1S/C3H6O2/c1-2-5-3-4-1/h1-3H2,WNXJIVFYUVYPPR-UHFFFAOYSA-N,?,78.0,103154
103155,646-07-1,646-07-1,CC(C)CCC(O)=O,4-METHYLPENTANOIC ACID,"Pentanoic acid, 4-methyl-",4-Methylpentanoic acid,22133,DTXSID8060951,CC(C)CCC(O)=O,"InChI=1S/C6H12O2/c1-5(2)3-4-6(7)8/h5H,3-4H2,1-2H3,(H,7,8)",FGKJLKRYENPLQH-UHFFFAOYSA-N,?,200.5,103155
103156,646-14-0,646-14-0,CCCCCC[N+]([O-])=O,NITROHEXANE,1-Nitrohexane,1-nitrohexane,22134,DTXSID3025758,CCCCCC[N+]([O-])=O,"InChI=1S/C6H13NO2/c1-2-3-4-5-6-7(8)9/h2-6H2,1H3",FEYJIFXFOHFGCC-UHFFFAOYSA-N,?,193.0,103156
103158,646-30-0,646-30-0,CCCCCCCCCCCCCCCCCCC(O)=O,Nonadecanoic acid,Nonadecanoic acid,NONADECANOIC ACID,22136,DTXSID3060954,CCCCCCCCCCCCCCCCCCC(O)=O,"InChI=1S/C19H38O2/c1-2-3-4-5-6-7-8-9-10-11-12-13-14-15-16-17-18-19(20)21/h2-18H2,1H3,(H,20,21)",ISYWECDDZWTKFF-UHFFFAOYSA-N,?,300.0,103158
103159,646-31-1,646-31-1,CCCCCCCCCCCCCCCCCCCCCCCC,TETRACOSANE,Tetracosane,Tetracosane,22137,DTXSID8060955,CCCCCCCCCCCCCCCCCCCCCCCC,"InChI=1S/C24H50/c1-3-5-7-9-11-13-15-17-19-21-23-24-22-20-18-16-14-12-10-8-6-4-2/h3-24H2,1-2H3",POOSGDOYLQNASK-UHFFFAOYSA-N,?,391.3,103159
103160,651-83-2,651-83-2,Nc1c(F)c(F)c(c(F)c1F)C(F)(F)F,"2,3,5,6-Tetrafluoro-4-(CF3)-aniline","2,3,5,6-Tetrafluoro-4-(trifluoromethyl)aniline",C7H2F7N,22138,DTXSID10346901,Nc1c(F)c(F)c(c(F)c1F)C(F)(F)F,"InChI=1S/C7H2F7N/c8-2-1(7(12,13)14)3(9)5(11)6(15)4(2)10/h15H2",FJOACTZFMHZHSC-UHFFFAOYSA-N,?,186.0,103160