ChemID,source_casrn,CAS,SMILES,NAME,preferred_name,iupac,MPID,dsstox_substance_id,Canonical_QSARr,InChI_Code_QSARr,InChI Key_QSARr,Salt_Solvent,Salt_Solvent_ID,MP,ID
105605,873-49-4,873-49-4,C1CC1c1ccccc1,CYCLOPROPYLBENZENE,Cyclopropylbenzene,Cyclopropylbenzene,32531,DTXSID2074297,C1CC1c1ccccc1,"InChI=1S/C9H10/c1-2-4-8(5-3-1)9-6-7-9/h1-5,9H,6-7H2",VFSFCYAQBIPUSL-UHFFFAOYSA-N,?,,-31.0,105605
105610,874-14-6,874-14-6,CN1C=CC(=O)N(C)C1=O,"2,4(1H,3H)-PYRIMIDINEDIONE, 1,3-DIMETHYL-","2,4(1H,3H)-Pyrimidinedione, 1,3-dimethyl-","1,3-dimethylpyrimidine-2,4-dione",32536,DTXSID0061244,CN1C=CC(=O)N(C)C1=O,"InChI=1S/C6H8N2O2/c1-7-4-3-5(9)8(2)6(7)10/h3-4H,1-2H3",JSDBKAHWADVXFU-UHFFFAOYSA-N,?,,120.0,105610
105614,874-79-3,874-79-3,CCCSc1ccccc1,"BENZENE, (PROPYLTHIO)-","Benzene, (propylthio)- (9CI)",propylsulfanylbenzene,32540,DTXSID60236328,CCCSc1ccccc1,"InChI=1S/C9H12S/c1-2-8-10-9-6-4-3-5-7-9/h3-7H,2,8H2,1H3",NWYDLOBJQIJDGH-UHFFFAOYSA-N,?,,-45.0,105614
105618,875-51-4,875-51-4,Nc1ccc(Br)cc1[N+]([O-])=O,"Benzenamine, 4-bromo-2-nitro-",4-Bromo-2-nitroaniline,4-Bromo-2-nitroaniline,32544,DTXSID0061248,Nc1ccc(Br)cc1[N+]([O-])=O,"InChI=1S/C6H5BrN2O2/c7-4-1-2-5(8)6(3-4)9(10)11/h1-3H,8H2",ZCWBZRBJSPWUPG-UHFFFAOYSA-N,?,,111.5,105618
105622,877-11-2,877-11-2,Cc1c(Cl)c(Cl)c(Cl)c(Cl)c1Cl,"2,3,4,5,6-PENTACHLOROTOLUENE",,,32548,DTXSID10870791,Cc1c(Cl)c(Cl)c(Cl)c(Cl)c1Cl,InChI=1S/C7H3Cl5/c1-2-3(8)5(10)7(12)6(11)4(2)9/h1H3,AVSIMRGRHWKCAY-UHFFFAOYSA-N,?,,224.8,105622
105627,880-52-4,880-52-4,CC(=O)NC12CC3CC(C1)CC(C2)C3,"Acetamide, N-tricyclo(3.3.1.13,7)dec-1-yl-","Acetamide, N-tricyclo[3.3.1.13,7]dec-1-yl-",N-(1-Adamantyl)acetamide,32552,DTXSID9061255,CC(=O)NC12CC3CC(C1)CC(C2)C3,"InChI=1S/C12H19NO/c1-8(14)13-12-5-9-2-10(6-12)4-11(3-9)7-12/h9-11H,2-7H2,1H3,(H,13,14)",BCVXYGJCDZPKGV-UHFFFAOYSA-N,?,,148.5,105627
105631,882-09-7,882-09-7,CC(C)(Oc1ccc(Cl)cc1)C(O)=O,2-(P-CLPHENOXY)2-ME-PROPIONIC ACID,Clofibric acid,2-(4-chlorophenoxy)-2-methylpropanoic acid,32556,DTXSID1040661,CC(C)(Oc1ccc(Cl)cc1)C(O)=O,"InChI=1S/C10H11ClO3/c1-10(2,9(12)13)14-8-5-3-7(11)4-6-8/h3-6H,1-2H3,(H,12,13)",TXCGAZHTZHNUAI-UHFFFAOYSA-N,?,,118.5,105631
105636,886-38-4,886-38-4,O=C1C(=C1c1ccccc1)c1ccccc1,Diphencyprone,Diphenylcyclopropenone,"2,3-diphenylcycloprop-2-en-1-one",32560,DTXSID2046545,O=C1C(=C1c1ccccc1)c1ccccc1,InChI=1S/C15H10O/c16-15-13(11-7-3-1-4-8-11)14(15)12-9-5-2-6-10-12/h1-10H,HCIBTBXNLVOFER-UHFFFAOYSA-N,?,,119.0,105636
105642,887-08-1,887-08-1,CC(C)[C@H]1CC[C@]2(C)C[C@H](O)[C@]3(C)CC[C@@]21O3,Daucol,Daucol,C15H26O2,32564,DTXSID90331810,CC(C)C1CCC2(C)CC(O)C3(C)CCC21O3,"InChI=1S/C15H26O2/c1-10(2)11-5-6-13(3)9-12(16)14(4)7-8-15(11,13)17-14/h10-12,16H,5-9H2,1-4H3",VLIUMVVQGMLOJG-UHFFFAOYSA-N,?,,114.0,105642
105649,917-92-0,917-92-0,CC(C)(C)C#C,"1-BUTYNE, 3,3-DIMETHYL-","3,3-Dimethylbutyne","3,3-dimethylbut-1-yne",32568,DTXSID70238671,CC(C)(C)C#C,"InChI=1S/C6H10/c1-5-6(2,3)4/h1H,2-4H3",PPWNCLVNXGCGAF-UHFFFAOYSA-N,?,,-78.2,105649
105653,920-66-1,920-66-1,OC(C(F)(F)F)C(F)(F)F,"1,1,1,3,3,3-HEXAFLUOROPROPAN-2-OL","1,1,1,3,3,3-Hexafluoro-2-propanol","1,1,1,3,3,3-hexafluoropropan-2-ol",32572,DTXSID1022134,OC(C(F)(F)F)C(F)(F)F,"InChI=1S/C3H2F6O/c4-2(5,6)1(10)3(7,8)9/h1,10H",BYEAHWXPCBROCE-UHFFFAOYSA-N,?,,-4.0,105653
105662,926-54-5,1118-58-7,CC=CC(C)=C,"2-METHYL-1,3-PENTADIENE","1,3-Pentadiene, 2-methyl-",?,32580,DTXSID3061506,CC=CC(C)=C,"InChI=1S/C6H10/c1-4-5-6(2)3/h4-5H,2H2,1,3H3/b5-4+",RCJMVGJKROQDCB-SNAWJCMRSA-N,?,,75.5,105662
105666,927-74-2,927-74-2,C#CCCO,3-Butyn-1-ol,3-Butyn-1-ol,but-3-yn-1-ol,32584,DTXSID1022136,C#CCCO,"InChI=1S/C4H6O/c1-2-3-4-5/h1,5H,3-4H2",OTJZCIYGRUNXTP-UHFFFAOYSA-N,?,,-63.6,105666
105670,930-02-9,930-02-9,CCCCCCCCCCCCCCCCCCOC=C,"Octadecane, 1-(ethenyloxy)-","Octadecane, 1-(ethenyloxy)-",1-ethenoxyoctadecane,32588,DTXSID2061305,CCCCCCCCCCCCCCCCCCOC=C,"InChI=1S/C20H40O/c1-3-5-6-7-8-9-10-11-12-13-14-15-16-17-18-19-20-21-4-2/h4H,2-3,5-20H2,1H3",QJJDJWUCRAPCOL-UHFFFAOYSA-N,?,,30.0,105670
105674,930-60-9,930-60-9,O=C1CC(=O)C=C1,"4-Cyclopentene-1,3-dione","4-Cyclopentene-1,3-dione","Cyclopent-4-ene-1,3-dione",32592,DTXSID80239235,O=C1CC(=O)C=C1,"InChI=1S/C5H4O2/c6-4-1-2-5(7)3-4/h1-2H,3H2",MCFZBCCYOPSZLG-UHFFFAOYSA-N,?,,37.0,105674
105678,930-89-2|930-90-5,930-90-5,C[C@@H]1CCC[C@H]1CC,"CYCLOPENTANE, 1-ETHYL-2-METHYL-, CIS-, 1-METHYL-2-ETHYLCYCLOPENTANE (TRANS)","Cyclopentane, 1-ethyl-2-methyl-, (1R,2R)-rel-","(1R,2R)-1-ethyl-2-methylcyclopentane",32596|32597,DTXSID2075055,CC1CCCC1CC,"InChI=1S/C8H16/c1-3-8-6-4-5-7(8)2/h7-8H,3-6H2,1-2H3",BSKOLJVTLRLTHE-UHFFFAOYSA-N,?,,-105.95,105678
105683,931-87-3,931-88-4,C1CCCCCC=C1,Cyclooctene,Cyclooctene,?,32601,DTXSID1061310,C1CCCCCC=C1,"InChI=1S/C8H14/c1-2-4-6-8-7-5-3-1/h1-2H,3-8H2/b2-1-",URYYVOIYTNXXBN-UPHRSURJSA-N,?,,-12.0,105683
105688,933-67-5,933-67-5,Cc1cccc2cc[nH]c21,7-METHYLINDOLE,7-Methylindole,7-methyl-1H-indole,32606,DTXSID60239374,Cc1cccc2cc[nH]c21,"InChI=1S/C9H9N/c1-7-3-2-4-8-5-6-10-9(7)8/h2-6,10H,1H3",KGWPHCDTOLQQEP-UHFFFAOYSA-N,?,,85.0,105688
105692,933-98-2,933-98-2,CCc1cccc(C)c1C,"1,2-DIMETHYL-3-ETHYLBENZENE",,,32610,DTXSID00865479,CCc1cccc(C)c1C,"InChI=1S/C10H14/c1-4-10-7-5-6-8(2)9(10)3/h5-7H,4H2,1-3H3",QUBBAXISAHIDNM-UHFFFAOYSA-N,?,,-49.5,105692
105696,934-74-7,934-74-7,CCc1cc(C)cc(C)c1,"1,3-DIMETHYL-5-ETHYLBENZENE","1,3-Dimethyl-5-ethylbenzene","1-Ethyl-3,5-dimethylbenzene",32614,DTXSID1061316,CCc1cc(C)cc(C)c1,"InChI=1S/C10H14/c1-4-10-6-8(2)5-9(3)7-10/h5-7H,4H2,1-3H3",LMAUULKNZLEMGN-UHFFFAOYSA-N,?,,-84.3,105696
105700,935-30-8,935-30-8,O=C1CCCCCCCN1,2-AZACYCLO-NONANONE,2-Azacyclononanone,azonan-2-one,32618,DTXSID60239450,O=C1CCCCCCCN1,"InChI=1S/C8H15NO/c10-8-6-4-2-1-3-5-7-9-8/h1-7H2,(H,9,10)",YDLSUFFXJYEVHW-UHFFFAOYSA-N,?,,78.0,105700
105704,936-49-2,936-49-2,C1CN=C(N1)c1ccccc1,2-Phenyl-2-imidazoline,"1H-Imidazole, 4,5-dihydro-2-phenyl-","2-phenyl-4,5-dihydro-1H-imidazole",32622,DTXSID5061322,C1CN=C(N1)c1ccccc1,"InChI=1S/C9H10N2/c1-2-4-8(5-3-1)9-10-6-7-11-9/h1-5H,6-7H2,(H,10,11)",BKCCAYLNRIRKDJ-UHFFFAOYSA-N,?,,96.5,105704
105708,938-25-0,NOCAS_870808,Nc1ccc2ccccc2c1N,"1,2-Diaminonaphthalene",,,32626,DTXSID20870808,Nc1ccc2ccccc2c1N,"InChI=1S/C10H10N2/c11-9-6-5-7-3-1-2-4-8(7)10(9)12/h1-6H,11-12H2",NTNWKDHZTDQSST-UHFFFAOYSA-N,?,,98.5,105708
105712,938-73-8,938-73-8,CCOc1ccccc1C(N)=O,"Benzamide, 2-ethoxy-",2-Ethoxybenzamide,2-ethoxybenzamide,32630,DTXSID4020581,CCOc1ccccc1C(N)=O,"InChI=1S/C9H11NO2/c1-2-12-8-6-4-3-5-7(8)9(10)11/h3-6H,2H2,1H3,(H2,10,11)",SBNKFTQSBPKMBZ-UHFFFAOYSA-N,?,,133.0,105712
105716,939-26-4,939-26-4,BrCc1cc2ccccc2cc1,(2-Naphthyl)bromomethane,2-Bromomethylnaphthalene,,32634,DTXSID10239864,BrCc1cc2ccccc2cc1,"InChI=1S/C11H9Br/c12-8-9-5-6-10-3-1-2-4-11(10)7-9/h1-7H,8H2",RUHJZSZTSCSTCC-UHFFFAOYSA-N,?,,56.0,105716
105720,940-31-8,1912-23-8,C[C@H](Oc1ccccc1)C(O)=O,2-Phenoxypropionic acid,(S)-2-Phenoxypropionic acid,C9H10O3,32637,DTXSID50354540,CC(Oc1ccccc1)C(O)=O,"InChI=1S/C9H10O3/c1-7(9(10)11)12-8-5-3-2-4-6-8/h2-7H,1H3,(H,10,11)",SXERGJJQSKIUIC-UHFFFAOYSA-N,?,,117.5,105720
105724,941-98-0,941-98-0,CC(=O)c1cccc2ccccc21,ALPHA-NAPHTHYL METHYL KETONE,1'-Acetonaphthone,1-(1-naphthyl)ethanone,32641,DTXSID4052635,CC(=O)c1cccc2ccccc21,"InChI=1S/C12H10O/c1-9(13)11-8-4-6-10-5-2-3-7-12(10)11/h2-8H,1H3",QQLIGMASAVJVON-UHFFFAOYSA-N,?,,34.0,105724
105728,942-92-7,942-92-7,CCCCCC(=O)c1ccccc1,"1-Hexanone, 1-phenyl-",Hexanophenone,1-phenylhexan-1-one,32645,DTXSID4061335,CCCCCC(=O)c1ccccc1,"InChI=1S/C12H16O/c1-2-3-5-10-12(13)11-8-6-4-7-9-11/h4,6-9H,2-3,5,10H2,1H3",MAHPVQDVMLWUAG-UHFFFAOYSA-N,?,,27.0,105728
105732,946-80-5,NOCAS_870813,C(Oc1ccccc1)c1ccccc1,BENZYL PHENYL ETHER,,,32649,DTXSID70870813,C(Oc1ccccc1)c1ccccc1,"InChI=1S/C13H12O/c1-3-7-12(8-4-1)11-14-13-9-5-2-6-10-13/h1-10H,11H2",BOTNYLSAWDQNEX-UHFFFAOYSA-N,?,,40.0,105732
105736,947-84-2,NOCAS_870814,OC(=O)c1ccccc1-c1ccccc1,"[1,1'-BIPHENYL]-2-CARBOXYLIC ACID",,,32653,DTXSID30870814,OC(=O)c1ccccc1-c1ccccc1,"InChI=1S/C13H10O2/c14-13(15)12-9-5-4-8-11(12)10-6-2-1-3-7-10/h1-9H,(H,14,15)",ILYSAKHOYBPSPC-UHFFFAOYSA-N,?,,114.3,105736
105742,951-78-0,31501-19-6,O[C@@H]1C[C@H](O[C@H]1CO)N1C=CC(=O)NC1=O,"URIDINE, 2'-DEOXY-",2'-Deoxy-L-uridine,C9H12N2O5,32657,DTXSID50426115,OC1CC(OC1CO)N1C=CC(=O)NC1=O,"InChI=1S/C9H12N2O5/c12-4-6-5(13)3-8(16-6)11-2-1-7(14)10-9(11)15/h1-2,5-6,8,12-13H,3-4H2,(H,10,14,15)",MXHRCPNRJAMMIM-UHFFFAOYSA-N,?,,163.0,105742
105747,953-26-4,953-26-4,CCOC(=O)C=Cc1ccc(cc1)[N+]([O-])=O,"2-Propenoic acid, 3-(4-nitrophenyl)-, ethyl este","2-Propenoic acid, 3-(4-nitrophenyl)-, ethyl ester",,32661,DTXSID8061347,CCOC(=O)C=Cc1ccc(cc1)[N+]([O-])=O,"InChI=1S/C11H11NO4/c1-2-16-11(13)8-5-9-3-6-10(7-4-9)12(14)15/h3-8H,2H2,1H3/b8-5+",PFBQVGXIMLXCQB-VMPITWQZSA-N,?,,139.0,105747
105752,958-60-1,NOCAS_871816,CC(CC)=NNc1ccc(cc1[N+]([O-])=O)[N+]([O-])=O,"2-Butanone, (2,4-dinitrophenyl)hydrazone",,,32665,DTXSID80871816,CC(CC)=NNc1ccc(cc1[N+]([O-])=O)[N+]([O-])=O,"InChI=1S/C10H12N4O4/c1-3-7(2)11-12-9-5-4-8(13(15)16)6-10(9)14(17)18/h4-6,12H,3H2,1-2H3/b11-7+",WPWSANGSIWAACK-YRNVUSSQSA-N,?,,116.8,105752
105757,961-68-2,961-68-2,[O-][N+](=O)c1cc(ccc1Nc1ccccc1)[N+]([O-])=O,"2,4-DINITRO-N-PHENYLBENZENAMINE","Benzenamine, 2,4-dinitro-N-phenyl-","2,4-Dinitro-N-phenylaniline",32669,DTXSID7061354,[O-][N+](=O)c1cc(ccc1Nc1ccccc1)[N+]([O-])=O,"InChI=1S/C12H9N3O4/c16-14(17)10-6-7-11(12(8-10)15(18)19)13-9-4-2-1-3-5-9/h1-8,13H",RHTVQEPJVKUMPI-UHFFFAOYSA-N,?,,159.0,105757
105761,965-90-2,965-90-2,C[C@]12CC[C@@H]3[C@H]4CCCC=C4CC[C@H]3[C@@H]1CC[C@@]2(O)CC,Ethylestrenol,Ethylestrenol,(17beta)-17-ethylestr-4-en-17-ol,32673,DTXSID6023024,CC12CCC3C4CCCC=C4CCC3C1CCC2(O)CC,"InChI=1S/C20H32O/c1-3-20(21)13-11-18-17-9-8-14-6-4-5-7-15(14)16(17)10-12-19(18,20)2/h6,15-18,21H,3-5,7-13H2,1-2H3",AOXRBFRFYPMWLR-UHFFFAOYSA-N,?,,77.0,105761
105765,973-21-7,973-21-7,CC(C)OC(=O)Oc1c(cc(cc1[N+]([O-])=O)[N+]([O-])=O)C(C)CC,DINOBUTON,Dinobuton,"2-(butan-2-yl)-4,6-dinitrophenyl propan-2-yl carbonate",32677,DTXSID4040268,CC(C)OC(=O)Oc1c(cc(cc1[N+]([O-])=O)[N+]([O-])=O)C(C)CC,"InChI=1S/C14H18N2O7/c1-5-9(4)11-6-10(15(18)19)7-12(16(20)21)13(11)23-14(17)22-8(2)3/h6-9H,5H2,1-4H3",HDWLUGYOLUHEMN-UHFFFAOYSA-N,?,,61.0,105765
105770,,987-18-8,CC(=O)O[C@@]1(CC[C@H]2[C@@H]3C[C@@H](C4=CC(=O)CC[C@]4(C)[C@H]3CC[C@]12C)C(F)(F)F)C(C)=O,Flumedroxone Acetate,,,32681,,CC(=O)OC1(CCC2C3CC(C4=CC(=O)CCC4(C)C3CCC12C)C(F)(F)F)C(C)=O,"InChI=1S/C24H31F3O4/c1-13(28)23(31-14(2)29)10-7-18-16-12-20(24(25,26)27)19-11-15(30)5-8-21(19,3)17(16)6-9-22(18,23)4/h11,16-18,20H,5-10,12H2,1-4H3",MXZYUFNILISKBC-UHFFFAOYSA-N,?,,206.5,105770
105780,997-55-7,NOCAS_862506,CC(=O)NC(CC([O-])=O)C([O-])=O,N-Acetylaspartate,,,32685,DTXSID20862506,CC(=O)NC(CC(O)=O)C(O)=O,"InChI=1S/C6H9NO5/c1-3(8)7-4(6(11)12)2-5(9)10/h4H,2H2,1H3,(H,7,8)(H,9,10)(H,11,12)",OTCCIMWXFLJLIA-UHFFFAOYSA-N,?,,138.5,105780
105784,1002-84-2,1002-84-2,CCCCCCCCCCCCCCC(O)=O,PENTADECANOIC ACID,Pentadecanoic acid,pentadecanoic acid,32689,DTXSID2021652,CCCCCCCCCCCCCCC(O)=O,"InChI=1S/C15H30O2/c1-2-3-4-5-6-7-8-9-10-11-12-13-14-15(16)17/h2-14H2,1H3,(H,16,17)",WQEPLUUGTLDZJY-UHFFFAOYSA-N,?,,52.3,105784
105793,1004-38-2,1004-38-2,Nc1[n]c(N)cc(N)[n]1,"2,4,6-PYRIMIDINETRIAMINE","2,4,6-Pyrimidinetriamine","pyrimidine-2,4,6-triamine",32696,DTXSID3061394,Nc1[n]c(N)cc(N)[n]1,"InChI=1S/C4H7N5/c5-2-1-3(6)9-4(7)8-2/h1H,(H6,5,6,7,8,9)",JTTIOYHBNXDJOD-UHFFFAOYSA-N,?,,250.0,105793
105797,1006-31-1,NOCAS_870830,Cc1c(Cl)c(Cl)cc(Cl)c1Cl,"2,3,5,6-TETRACHLOROTOLUENE",,,32700,DTXSID90870830,Cc1c(Cl)c(Cl)cc(Cl)c1Cl,"InChI=1S/C7H4Cl4/c1-3-6(10)4(8)2-5(9)7(3)11/h2H,1H3",ZOXPZFFPPKVNEA-UHFFFAOYSA-N,?,,93.5,105797
105801,1008-76-0,NOCAS_870831,O=C1CCC(O1)c1ccccc1,"2(3H)-Furanone, 4,5-dihydro-5-phenyl-",,,32704,DTXSID50870831,O=C1CCC(O1)c1ccccc1,"InChI=1S/C10H10O2/c11-10-7-6-9(12-10)8-4-2-1-3-5-8/h1-5,9H,6-7H2",AEUULUMEYIPECD-UHFFFAOYSA-N,?,,36.5,105801
105805,1009-93-4,1009-93-4,C[Si]1(C)N[Si](C)(C)N[Si](C)(C)N1,"CYCLOTRISILAZANE, 2,2,4,4,6,6-HEXAMETHYL-","2,2,4,4,6,6-Hexamethyl-1,3,5,2,4,6-triazatrisilinane","2,2,4,4,6,6-hexamethyl-1,3,5,2,4,6-triazatrisilinane",32708,DTXSID4037748,C[Si]1(C)N[Si](C)(C)N[Si](C)(C)N1,"InChI=1S/C6H21N3Si3/c1-10(2)7-11(3,4)9-12(5,6)8-10/h7-9H,1-6H3",WGGNJZRNHUJNEM-UHFFFAOYSA-N,?,,-10.0,105805
105809,1012-84-6,1012-84-6,OC(=O)c1c(Cl)c(Cl)c(Cl)c(Cl)c1Cl,"BENZOIC ACID, PENTACHLORO-",Pentachlorobenzoic acid,"2,3,4,5,6-pentachlorobenzoic acid",32712,DTXSID5074420,OC(=O)c1c(Cl)c(Cl)c(Cl)c(Cl)c1Cl,"InChI=1S/C7HCl5O2/c8-2-1(7(13)14)3(9)5(11)6(12)4(2)10/h(H,13,14)",IONYGGJUUJFXJK-UHFFFAOYSA-N,?,,209.3,105809
105814,1019-45-0,1019-45-0,COc1cc2c(cc1)[nH]cc2CCN(C)C,"Indole, 3-(2-(N,N-dimethylamino)ethyl)-5-methoxy",O-Methylbufotenine,"2-(5-methoxy-1H-indol-3-yl)-N,N-dimethylethanamine",32716,DTXSID70144324,COc1cc2c(cc1)[nH]cc2CCN(C)C,"InChI=1S/C13H18N2O/c1-15(2)7-6-10-9-14-13-5-4-11(16-3)8-12(10)13/h4-5,8-9,14H,6-7H2,1-3H3",ZSTKHSQDNIGFLM-UHFFFAOYSA-N,?,,69.5,105814
105819,1024-57-3,1024-57-3,ClC1(Cl)C2(Cl)C3C4OC4C(Cl)C3C1(Cl)C(Cl)=C2Cl,HEPTACHLOR EPOXIDE,Heptachlor epoxide,"2,3,4,5,6,7,7-heptachloro-1b,2,5,5a,6,6a-hexahydro-1aH-2,5-methanoindeno[1,2-b]oxirene",32720,DTXSID1024126,ClC1(Cl)C2(Cl)C3C4OC4C(Cl)C3C1(Cl)C(Cl)=C2Cl,"InChI=1S/C10H5Cl7O/c11-3-1-2(4-5(3)18-4)9(15)7(13)6(12)8(1,14)10(9,16)17/h1-5H",ZXFXBSWRVIQKOD-UHFFFAOYSA-N,?,,160.0,105819
105823,1031-47-6,1031-47-6,CN(C)P(=O)([n]1[n]c([n]c1N)-c1ccccc1)N(C)C,"Phosphonic diamide, P-(5-amino-3-phenyl-1H-1,2,4",Triamiphos,"P-(5-amino-3-phenyl-1H-1,2,4-triazol-1-yl)-N,N,N',N'-tetramethylphosphonic diamide",32724,DTXSID2042482,CN(C)P(=O)([n]1[n]c([n]c1N)-c1ccccc1)N(C)C,"InChI=1S/C12H19N6OP/c1-16(2)20(19,17(3)4)18-12(13)14-11(15-18)10-8-6-5-7-9-10/h5-9H,1-4H3,(H2,13,14,15)",BABJTMNVJXLAEX-UHFFFAOYSA-N,?,,167.5,105823
105827,1046-56-6,1046-56-6,c1ccc[n]c1-c1[n]c(c([n][n]1)-c1ccccc1)-c1ccccc1,"3-(2-Pyridyl)-5,6-diphenyl-1,2,4-triazine","1,2,4-Triazine, 5,6-diphenyl-3-(2-pyridinyl)-","5,6-di(phenyl)-3-pyridin-2-yl-1,2,4-triazine",32728,DTXSID8061428,c1ccc[n]c1-c1[n]c(c([n][n]1)-c1ccccc1)-c1ccccc1,InChI=1S/C20H14N4/c1-3-9-15(10-4-1)18-19(16-11-5-2-6-12-16)23-24-20(22-18)17-13-7-8-14-21-17/h1-14H,OTMYLOBWDNFTLO-UHFFFAOYSA-N,?,,192.0,105827
105833,1067-08-9,1067-08-9,CC(CC)(CC)CC,3-METHYL-3-ETHYLPENTANE,"Pentane, 3-ethyl-3-methyl-",3-Ethyl-3-methylpentane,32732,DTXSID9074690,CC(CC)(CC)CC,"InChI=1S/C8H18/c1-5-8(4,6-2)7-3/h5-7H2,1-4H3",GIEZWIDCIFCQPS-UHFFFAOYSA-N,?,,-90.9,105833
105838,1068-90-2,1068-90-2,CC(=O)NC(C(=O)OCC)C(=O)OCC,"Propanedioic acid, (acetylamino)-, diethyl ester","Propanedioic acid, 2-(acetylamino)-, 1,3-diethyl ester",,32736,DTXSID6061446,CC(=O)NC(C(=O)OCC)C(=O)OCC,"InChI=1S/C9H15NO5/c1-4-14-8(12)7(10-6(3)11)9(13)15-5-2/h7H,4-5H2,1-3H3,(H,10,11)",ISOLMABRZPQKOV-UHFFFAOYSA-N,?,,96.3,105838
105843,1070-87-7,1070-87-7,CC(C)(C)CC(C)(C)C,"2,2,4,4-TETRAMETHYLPENTANE","Pentane, 2,2,4,4-tetramethyl- (8CI)(9CI)","2,2,4,4-Tetramethylpentane",32740,DTXSID70147870,CC(C)(C)CC(C)(C)C,"InChI=1S/C9H20/c1-8(2,3)7-9(4,5)6/h7H2,1-6H3",GUMULFRCHLJNDY-UHFFFAOYSA-N,?,,-66.5,105843
105847,1071-83-6,1071-83-6,OC(=O)CNCP(O)(O)=O,GLYPHOSPHATE,Glyphosate,N-(phosphonomethyl)glycine,32744,DTXSID1024122,OC(=O)CNCP(O)(O)=O,"InChI=1S/C3H8NO5P/c5-3(6)1-4-2-10(7,8)9/h4H,1-2H2,(H,5,6)(H2,7,8,9)",XDDAORKBJWWYJS-UHFFFAOYSA-N,?,,189.5,105847
105851,1072-21-5,1072-21-5,O=CCCCCC=O,Hexanedial,Adipic dialdehyde,"hexa-2,4-diynedial",32748,DTXSID10147935,O=CCCCCC=O,"InChI=1S/C6H10O2/c7-5-3-1-2-4-6-8/h5-6H,1-4H2",UMHJEEQLYBKSAN-UHFFFAOYSA-N,?,,-8.0,105851
105855,1072-98-6,1072-98-6,Nc1ccc(Cl)c[n]1,2-Amino-5-chloropyridine,2-Amino-5-chloropyridine,5-chloropyridin-2-amine,32752,DTXSID0073247,Nc1ccc(Cl)c[n]1,"InChI=1S/C5H5ClN2/c6-4-1-2-5(7)8-3-4/h1-3H,(H2,7,8)",MAXBVGJEFDMHNV-UHFFFAOYSA-N,?,,137.0,105855
105859,1074-43-7,1074-43-7,Cc1cccc(CCC)c1,1-METHYL-3-PROPYLBENZENE,1-Methyl-3-propylbenzene,1-Methyl-3-propylbenzene,32756,DTXSID4061468,Cc1cccc(CCC)c1,"InChI=1S/C10H14/c1-3-5-10-7-4-6-9(2)8-10/h4,6-8H,3,5H2,1-2H3",QUEBYVKXYIKVSO-UHFFFAOYSA-N,?,,-82.5,105859
105863,1075-76-9,1075-76-9,N#CCCNc1ccccc1,"Propanenitrile, 3-(phenylamino)-",3-Anilinopropionitrile,3-anilinopropanenitrile,32760,DTXSID8051548,N#CCCNc1ccccc1,"InChI=1S/C9H10N2/c10-7-4-8-11-9-5-2-1-3-6-9/h1-3,5-6,11H,4,8H2",FENJKTQEFUPECW-UHFFFAOYSA-N,?,,52.5,105863
105867,1077-16-3,1077-16-3,CCCCCCc1ccccc1,N-HEXYLBENZENE,"Benzene, hexyl-",Hexylbenzene,32764,DTXSID8061476,CCCCCCc1ccccc1,"InChI=1S/C12H18/c1-2-3-4-6-9-12-10-7-5-8-11-12/h5,7-8,10-11H,2-4,6,9H2,1H3",LTEQMZWBSYACLV-UHFFFAOYSA-N,?,,-61.0,105867
105871,1079-71-6,1079-71-6,C1CCCc2cc3CCCCc3cc21,"1,2,3,4,5,6,7,8-Octahydro-anthracene","1,2,3,4,5,6,7,8-Octahydroanthracene","1,2,3,4,5,6,7,8-Octahydroanthracene",32768,DTXSID90148324,C1CCCc2cc3CCCCc3cc21,"InChI=1S/C14H18/c1-2-6-12-10-14-8-4-3-7-13(14)9-11(12)5-1/h9-10H,1-8H2",LFAYMJXHGYUQNV-UHFFFAOYSA-N,?,,78.0,105871
105875,1081-75-0,NOCAS_862527,C(CCc1ccccc1)c1ccccc1,"BENZENE, 1,1'-(1,3-PROPANEDIYL)BIS-",,,32772,DTXSID80862527,C(CCc1ccccc1)c1ccccc1,"InChI=1S/C15H16/c1-3-8-14(9-4-1)12-7-13-15-10-5-2-6-11-15/h1-6,8-11H,7,12-13H2",VEAFKIYNHVBNIP-UHFFFAOYSA-N,?,,6.0,105875
105879,1083-56-3,1083-56-3,C(CCCc1ccccc1)c1ccccc1,"BENZENE, 1,1'-(1,4-BUTANEDIYL)BIS-","Benzene, 1,1'-(1,4-butanediyl)bis- (9CI)",4-phenylbutylbenzene,32776,DTXSID60148492,C(CCCc1ccccc1)c1ccccc1,"InChI=1S/C16H18/c1-3-9-15(10-4-1)13-7-8-14-16-11-5-2-6-12-16/h1-6,9-12H,7-8,13-14H2",GLJFYGFBITUZOE-UHFFFAOYSA-N,?,,52.5,105879
105883,1088-11-5,1088-11-5,O=C1CN=C(c2cc(Cl)ccc2N1)c1ccccc1,"1,4-BENZDIAZEPIN-2-ONE-5-PH-7-CL",Desmethyldiazepam,"7-chloro-5-phenyl-1,3-dihydro-2H-1,4-benzodiazepin-2-one",32780,DTXSID2049000,O=C1CN=C(c2cc(Cl)ccc2N1)c1ccccc1,"InChI=1S/C15H11ClN2O/c16-11-6-7-13-12(8-11)15(17-9-14(19)18-13)10-4-2-1-3-5-10/h1-8H,9H2,(H,18,19)",AKPLHCDWDRPJGD-UHFFFAOYSA-N,?,,216.5,105883
105887,1095-03-0,1095-03-0,c1ccccc1OB(Oc1ccccc1)Oc1ccccc1,"Boric acid, triphenyl ester","Boric acid, triphenyl ester",tris(phenoxy)borane,32784,DTXSID40148955,c1ccccc1OB(Oc1ccccc1)Oc1ccccc1,InChI=1S/C18H15BO3/c1-4-10-16(11-5-1)20-19(21-17-12-6-2-7-13-17)22-18-14-8-3-9-15-18/h1-15H,MDCWDBMBZLORER-UHFFFAOYSA-N,?,,99.5,105887
105894,1111-97-3,1111-97-3,CC(C)(Cl)C#C,"1-Butyne, 3-chloro-3-methyl-","1-Butyne, 3-chloro-3-methyl-",3-Chloro-3-methylbut-1-yne,32788,DTXSID2061488,CC(C)(Cl)C#C,"InChI=1S/C5H7Cl/c1-4-5(2,3)6/h1H,2-3H3",QSILYWCNPOLKPN-UHFFFAOYSA-N,?,,-61.0,105894
105898,1113-74-2,1113-74-2,CC(C)C(=NO)C(C)C,"2,4-Dimethyl-pentan-3-one oxime","2,4-Dimethylpentan-3-one oxime","N-(2,4-dimethylpentan-3-ylidene)hydroxylamine",32792,DTXSID00149589,CC(C)C(N=O)C(C)C,"InChI=1S/C7H15NO/c1-5(2)7(8-9)6(3)4/h5-7H,1-4H3",FEAIQODIRWXPOD-UHFFFAOYSA-N,?,,34.0,105898
105906,1117-55-1,1117-55-1,CCCCCCCC(=O)OCCCCCC,"Octanoic acid, hexyl ester",Hexyl octanoate,hexyl octanoate,32797,DTXSID8047636,CCCCCCCC(=O)OCCCCCC,"InChI=1S/C14H28O2/c1-3-5-7-9-10-12-14(15)16-13-11-8-6-4-2/h3-13H2,1-2H3",PBGWNXWNCSSXCO-UHFFFAOYSA-N,?,,-30.6,105906
105911,1118-89-4,1118-89-4,Cl.CCOC(=O)CCC(N)C(=O)OCC,"L-Glutamic acid, diethyl ester, hydrochloride",PUBCHEM_12631225,C9H18ClNO4,32801,DTXSID50879622,CCOC(=O)CCC(N)C(=O)OCC,"InChI=1S/C9H17NO4/c1-3-13-8(11)6-5-7(10)9(12)14-4-2/h7H,3-6,10H2,1-2H3",HERPVHLYIHBEFW-UHFFFAOYSA-N,Cl,18179.0,109.0,105911
105917,1119-85-3,NOCAS_870843,N#CCC=CCC#N,3-Hexenedinitrile,,,32805,DTXSID20870843,N#CCC=CCC#N,"InChI=1S/C6H6N2/c7-5-3-1-2-4-6-8/h1-2H,3-4H2/b2-1+",BSVZXPLUMFUWHW-OWOJBTEDSA-N,?,,76.0,105917
105921,1120-16-7,1120-16-7,CCCCCCCCCCCC(N)=O,Dodecanamide,Dodecanamide,dodecanamide,32809,DTXSID5022146,CCCCCCCCCCCC(N)=O,"InChI=1S/C12H25NO/c1-2-3-4-5-6-7-8-9-10-11-12(13)14/h2-11H2,1H3,(H2,13,14)",ILRSCQWREDREME-UHFFFAOYSA-N,?,,110.0,105921
105925,1120-48-5,1120-48-5,CCCCCCCCNCCCCCCCC,"1-Octanamine, N-octyl-","1-Octanamine, N-octyl-",N-octyloctan-1-amine,32813,DTXSID2061517,CCCCCCCCNCCCCCCCC,"InChI=1S/C16H35N/c1-3-5-7-9-11-13-15-17-16-14-12-10-8-6-4-2/h17H,3-16H2,1-2H3",LAWOZCWGWDVVSG-UHFFFAOYSA-N,?,,35.5,105925
105929,1120-87-2,1120-87-2,Brc1cc[n]cc1,4-BROMOPYRIDINE,4-Bromopyridine,4-BROMOPYRIDINE,32817,DTXSID1061520,Brc1cc[n]cc1,InChI=1S/C5H4BrN/c6-5-1-3-7-4-2-5/h1-4H,BSDGZUDFPKIYQG-UHFFFAOYSA-N,?,,0.5,105929