ChemID,source_casrn,CAS,SMILES,NAME,preferred_name,iupac,MPID,dsstox_substance_id,Canonical_QSARr,InChI_Code_QSARr,InChI Key_QSARr,Salt_Solvent,Salt_Solvent_ID,MP,ID
100139,56-03-1,56-03-1,NC(=N)NC(N)=N,Biguanide,Imidodicarbonimidic diamide,,27543,DTXSID7074664,NC(=N)NC(N)=N,"InChI=1S/C2H7N5/c3-1(4)7-2(5)6/h(H7,3,4,5,6,7)",XNCOSPRUTUOJCJ-UHFFFAOYSA-N,?,,136.0,100139
100142,56-18-8,56-18-8,NCCCNCCCN,"1,3-Propanediamine, N-(3-aminopropyl)-",Iminobis-3-propylamine,"N-(3-aminopropyl)propane-1,3-diamine",27545,DTXSID0025440,NCCCNCCCN,"InChI=1S/C6H17N3/c7-3-1-5-9-6-2-4-8/h9H,1-8H2",OTBHHUPVCYLGQO-UHFFFAOYSA-N,?,,-14.0,100142
100143,56-23-5,56-23-5,ClC(Cl)(Cl)Cl,CARBON TETRACHLORIDE,Carbon tetrachloride,tetrachloromethane,27546,DTXSID8020250,ClC(Cl)(Cl)Cl,"InChI=1S/CCl4/c2-1(3,4)5",VZGDMQKNWNREIO-UHFFFAOYSA-N,?,,-23.0,100143
100144,56-25-7,56-25-7,C[C@]12C3CCC(O3)[C@@]1(C)C(=O)OC2=O,Cantharidin,Cantharidin,"(3aR,7aS)-3a,7a-dimethylhexahydro-4,7-epoxy-2-benzofuran-1,3-dione",27547,DTXSID7041752,CC12C3CCC(O3)C1(C)C(=O)OC2=O,"InChI=1S/C10H12O4/c1-9-5-3-4-6(13-5)10(9,2)8(12)14-7(9)11/h5-6H,3-4H2,1-2H3",DHZBEENLJMYSHQ-UHFFFAOYSA-N,?,,218.0,100144
100148,56-38-2,56-38-2,CCOP(=S)(Oc1ccc(cc1)[N+]([O-])=O)OCC,PARATHION,Parathion,"O,O-diethyl O-(4-nitrophenyl) phosphorothioate",27549,DTXSID7021100,CCOP(=S)(Oc1ccc(cc1)[N+]([O-])=O)OCC,"InChI=1S/C10H14NO5PS/c1-3-14-17(18,15-4-2)16-10-7-5-9(6-8-10)11(12)13/h5-8H,3-4H2,1-2H3",LCCNCVORNKJIRZ-UHFFFAOYSA-N,?,,6.1,100148
100149,56-47-3,56-47-3,CC(=O)OCC(=O)[C@H]1CC[C@H]2[C@@H]3CCC4=CC(=O)CC[C@]4(C)[C@H]3CC[C@@]21C,DEOXYCORTICOSTERONE ACETATE,Deoxycorticosterone acetate,"3,20-dioxopregn-4-en-21-yl acetate",27550,DTXSID6022894,CC(=O)OCC(=O)C1CCC2C3CCC4=CC(=O)CCC4(C)C3CCC21C,"InChI=1S/C23H32O4/c1-14(24)27-13-21(26)20-7-6-18-17-5-4-15-12-16(25)8-10-22(15,2)19(17)9-11-23(18,20)3/h12,17-20H,4-11,13H2,1-3H3",VPGRYOFKCNULNK-UHFFFAOYSA-N,?,,157.0,100149
100150,56-49-5,56-49-5,Cc1ccc2cc3c(ccc4ccccc43)c3CCc1c32,3-METHYLCHOLANTHRENE,3-Methylcholanthrene,"3-methyl-1,2-dihydrocyclopenta[ij]tetraphene",27551,DTXSID0020862,Cc1ccc2cc3c(ccc4ccccc43)c3CCc1c32,"InChI=1S/C21H16/c1-13-6-7-15-12-20-17-5-3-2-4-14(17)8-9-18(20)19-11-10-16(13)21(15)19/h2-9,12H,10-11H2,1H3",PPQNQXQZIWHJRB-UHFFFAOYSA-N,?,,180.0,100150
100154,56-57-5,56-57-5,[O-][n+]1ccc(c2ccccc12)[N+]([O-])=O,4-NITROQUINOLINE OXIDE,4-Nitroquinoline-1-oxide,4-nitroquinoline 1-oxide,27552,DTXSID5025780,[O-][n+]1ccc(c2ccccc12)[N+]([O-])=O,InChI=1S/C9H6N2O3/c12-10-6-5-9(11(13)14)7-3-1-2-4-8(7)10/h1-6H,YHQDZJICGQWFHK-UHFFFAOYSA-N,?,,154.0,100154
100155,56-72-4,56-72-4,CC1c2ccc(cc2OC(=O)C=1Cl)OP(=S)(OCC)OCC,COUMAPHOS,Coumaphos,"O-(3-chloro-4-methyl-2-oxo-2H-chromen-7-yl) O,O-diethyl phosphorothioate",27553,DTXSID2020347,CC1c2ccc(cc2OC(=O)C=1Cl)OP(=S)(OCC)OCC,"InChI=1S/C14H16ClO5PS/c1-4-17-21(22,18-5-2)20-10-6-7-11-9(3)13(15)14(16)19-12(11)8-10/h6-8H,4-5H2,1-3H3",BXNANOICGRISHX-UHFFFAOYSA-N,?,,93.0,100155
100157,56-81-5,56-81-5,OC(CO)CO,GLYCEROL,Glycerol,"propane-1,2,3-triol",27555,DTXSID9020663,OC(CO)CO,"InChI=1S/C3H8O3/c4-1-3(6)2-5/h3-6H,1-2H2",PEDCQBHIVMGVHV-UHFFFAOYSA-N,?,,18.2,100157
100159,56-84-8|617-45-8,56-84-8|1783-96-6,N[C@@H](CC(O)=O)C(O)=O,"ASPARTIC ACID, DL-Aspartic acid",L-Aspartic acid,L-aspartic acid,27556|31779,DTXSID7022621|DTXSID2045650,NC(CC(O)=O)C(O)=O,"InChI=1S/C4H7NO4/c5-2(4(8)9)1-3(6)7/h2H,1,5H2,(H,6,7)(H,8,9)",CKLJMWTZIZZHCS-UHFFFAOYSA-N,?,,272.5,100159
100160,56-92-8,56-92-8,Cl.Cl.NCCc1c[nH]c[n]1,Histamine dihydrochloride [USAN],"1H-Imidazole-4-ethanamine, dihydrochloride",,27557,DTXSID1058767,NCCc1c[nH]c[n]1,"InChI=1S/C5H9N3/c6-2-1-5-3-7-4-8-5/h3-4H,1-2,6H2,(H,7,8)",NTYJJOPFIAHURM-UHFFFAOYSA-N,Cl.Cl,183,250.5,100160
100162,57-03-4,57-03-4,OCC(O)COP(O)(O)=O,Glycerophosphoric Acid,Glycerophosphoric acid I,"2,3-dihydroxypropyl dihydrogen phosphate",27559,DTXSID6023105,OCC(O)COP(O)(O)=O,"InChI=1S/C3H9O6P/c4-1-3(5)2-9-10(6,7)8/h3-5H,1-2H2,(H2,6,7,8)",AWUCVROLDVIAJX-UHFFFAOYSA-N,?,,-25.0,100162
100163,57-06-7,57-06-7,C=CCN=C=S,3-ISOTHIOCYANATO-1-PROPENE,Allyl isothiocyanate,3-isothiocyanatoprop-1-ene,27560,DTXSID3020047,C=CCN=C=S,"InChI=1S/C4H5NS/c1-2-3-5-4-6/h2H,1,3H2",ZOJBYZNEUISWFT-UHFFFAOYSA-N,?,,-80.0,100163
100164,57-08-9,57-08-9,CC(=O)NCCCCCC(O)=O,e-Acetamidocaproic acid,Acexamic acid,6-(acetylamino)hexanoic acid,27561,DTXSID1045879,CC(=O)NCCCCCC(O)=O,"InChI=1S/C8H15NO3/c1-7(10)9-6-4-2-3-5-8(11)12/h2-6H2,1H3,(H,9,10)(H,11,12)",WDSCBUNMANHPFH-UHFFFAOYSA-N,?,,104.5,100164
100166,57-10-3,57-10-3,CCCCCCCCCCCCCCCC(O)=O,PALMITIC ACID,Hexadecanoic acid,hexadecanoic acid,27563,DTXSID2021602,CCCCCCCCCCCCCCCC(O)=O,"InChI=1S/C16H32O2/c1-2-3-4-5-6-7-8-9-10-11-12-13-14-15-16(17)18/h2-15H2,1H3,(H,17,18)",IPCSVZSSVZVIGE-UHFFFAOYSA-N,?,,61.8,100166
100167,57-11-4,57-11-4,CCCCCCCCCCCCCCCCCC(O)=O,STEARIC ACID,Octadecanoic acid,octadecanoic acid,27564,DTXSID8021642,CCCCCCCCCCCCCCCCCC(O)=O,"InChI=1S/C18H36O2/c1-2-3-4-5-6-7-8-9-10-11-12-13-14-15-16-17-18(19)20/h2-17H2,1H3,(H,19,20)",QIQXTHQIDYTFRH-UHFFFAOYSA-N,?,,68.8,100167
100168,57-13-6,57-13-6,NC(N)=O,UREA,Urea,urea,27565,DTXSID4021426,NC(N)=O,"InChI=1S/CH4N2O/c2-1(3)4/h(H4,2,3,4)",XSQUKJJJFZCRTK-UHFFFAOYSA-N,?,,132.7,100168
100170,57-15-8,57-15-8,CC(C)(O)C(Cl)(Cl)Cl,"B,B,B-TRICHLORO-T-BUTANOL","1,1,1-Trichloro-2-methyl-2-propanol","1,1,1-trichloro-2-methylpropan-2-ol",27567,DTXSID1041217,CC(C)(O)C(Cl)(Cl)Cl,"InChI=1S/C4H7Cl3O/c1-3(2,8)4(5,6)7/h8H,1-2H3",OSASVXMJTNOKOY-UHFFFAOYSA-N,?,,97.0,100170
100172,57-24-9,57-24-9,O=C1C[C@@H]2OCC=C3CN4CC[C@]56[C@H]([C@H]2[C@H]3C[C@@H]54)N1c1ccccc61,STRYCHNINE,Strychnine,strychnidin-10-one,27568,DTXSID6023600,O=C1CC2OCC=C3CN4CCC56C(C2C3CC54)N1c1ccccc61,"InChI=1S/C21H22N2O2/c24-18-10-16-19-13-9-17-21(6-7-22(17)11-12(13)5-8-25-16)14-3-1-2-4-15(14)23(18)20(19)21/h1-5,13,16-17,19-20H,6-11H2",QMGVPVSNSZLJIA-UHFFFAOYSA-N,?,,287.0,100172
100173,57-27-2,57-27-2,CN1CC[C@@]23[C@H]4Oc5c2c(C[C@@H]1[C@@H]3C=C[C@@H]4O)ccc5O,MORPHINE,Morphine,"(5alpha,6alpha)-17-methyl-7,8-didehydro-4,5-epoxymorphinan-3,6-diol",27569,DTXSID9023336,CN1CCC23C4Oc5c2c(CC1C3C=CC4O)ccc5O,"InChI=1S/C17H19NO3/c1-18-7-6-17-10-3-5-13(20)16(17)21-15-12(19)4-2-9(14(15)17)8-11(10)18/h2-5,10-11,13,16,19-20H,6-8H2,1H3",BQJCRHHNABKAKU-UHFFFAOYSA-N,?,,255.0,100173
100175,57-41-0,57-41-0,O=C1NC(=O)C(N1)(c1ccccc1)c1ccccc1,PHENYTOIN,"5,5-Diphenylhydantoin","5,5-diphenylimidazolidine-2,4-dione",27571,DTXSID8020541,O=C1NC(=O)C(N1)(c1ccccc1)c1ccccc1,"InChI=1S/C15H12N2O2/c18-13-15(17-14(19)16-13,11-7-3-1-4-8-11)12-9-5-2-6-10-12/h1-10H,(H2,16,17,18,19)",CXOFVDLJLONNDW-UHFFFAOYSA-N,?,,296.5,100175
100176,57-42-1,57-42-1,CCOC(=O)C1(CCN(C)CC1)c1ccccc1,DEMEROL,Meperidine,ethyl 1-methyl-4-phenylpiperidine-4-carboxylate,27572,DTXSID9023253,CCOC(=O)C1(CCN(C)CC1)c1ccccc1,"InChI=1S/C15H21NO2/c1-3-18-14(17)15(9-11-16(2)12-10-15)13-7-5-4-6-8-13/h4-8H,3,9-12H2,1-2H3",XADCESSVHJOZHK-UHFFFAOYSA-N,?,,270.0,100176
100177,57-43-2,57-43-2,CCC1(CCC(C)C)C(=O)NC(=O)NC1=O,AMOBARBITAL,Amobarbital,"5-ethyl-5-(3-methylbutyl)pyrimidine-2,4,6(1H,3H,5H)-trione",27573,DTXSID9020081,CCC1(CCC(C)C)C(=O)NC(=O)NC1=O,"InChI=1S/C11H18N2O3/c1-4-11(6-5-7(2)3)8(14)12-10(16)13-9(11)15/h7H,4-6H2,1-3H3,(H2,12,13,14,15,16)",VIROVYVQCGLCII-UHFFFAOYSA-N,?,,157.0,100177
100179,57-47-6,57-47-6,CN1CC[C@]2(C)[C@H]1N(C)c1ccc(cc21)OC(=O)NC,PHYSOSTIGMINE,Physostigmine,"(3aS,8aR)-1,3a,8-trimethyl-1,2,3,3a,8,8a-hexahydropyrrolo[2,3-b]indol-5-yl methylcarbamate",27575,DTXSID3023471,CN1CCC2(C)C1N(C)c1ccc(cc21)OC(=O)NC,"InChI=1S/C15H21N3O2/c1-15-7-8-17(3)13(15)18(4)12-6-5-10(9-11(12)15)20-14(19)16-2/h5-6,9,13H,7-8H2,1-4H3,(H,16,19)",PIJVFDBKTWXHHD-UHFFFAOYSA-N,?,,105.5,100179
100180,57-50-1,57-50-1,O[C@H]1[C@H](O[C@H](CO)[C@@H](O)[C@@H]1O)O[C@]1(CO)O[C@H](CO)[C@@H](O)[C@@H]1O,SUCROSE,Sucrose,beta-D-fructofuranosyl alpha-D-glucopyranoside,27576,DTXSID2021288,OC1C(OC(CO)C(O)C1O)OC1(CO)OC(CO)C(O)C1O,"InChI=1S/C12H22O11/c13-1-4-6(16)8(18)9(19)11(21-4)23-12(3-15)10(20)7(17)5(2-14)22-12/h4-11,13-20H,1-3H2",CZMRCDWAGMRECN-UHFFFAOYSA-N,?,,185.5,100180
100181,57-53-4,57-53-4,CCCC(C)(COC(N)=O)COC(N)=O,MEPROBAMATE,Meprobamate,2-[(carbamoyloxy)methyl]-2-methylpentyl carbamate,27577,DTXSID3023261,CCCC(C)(COC(N)=O)COC(N)=O,"InChI=1S/C9H18N2O4/c1-3-4-9(2,5-14-7(10)12)6-15-8(11)13/h3-6H2,1-2H3,(H2,10,12)(H2,11,13)",NPPQSCRMBWNHMW-UHFFFAOYSA-N,?,,105.0,100181
100183,57-56-7,57-56-7,NNC(N)=O,Carbamylhydrazine,Semicarbazide,hydrazinecarboxamide,27579,DTXSID7043823,NNC(N)=O,"InChI=1S/CH5N3O/c2-1(5)4-3/h3H2,(H3,2,4,5)",DUIOPKIIICUYRZ-UHFFFAOYSA-N,?,,96.0,100183
100184,57-57-8,57-57-8,O=C1CCO1,BETA-PROPIOLACTONE,beta-Propiolactone,oxetan-2-one,27580,DTXSID8021197,O=C1CCO1,InChI=1S/C3H4O2/c4-3-1-2-5-3/h1-2H2,VEZXCJBBBCKRPI-UHFFFAOYSA-N,?,,-33.4,100184
100185,57-62-5,57-62-5,C[C@]1(O)[C@H]2C[C@H]3[C@@H](C(O)=C(C(N)=O)C(=O)[C@@]3(O)C(O)=C2C(=O)c2c1c(Cl)ccc2O)N(C)C,AUREOMYCIN,Chlortetracycline,"(4S,4aS,5aS,6S,12aS)-7-chloro-4-(dimethylamino)-3,6,10,12,12a-pentahydroxy-6-methyl-1,11-dioxo-1,4,4a,5,5a,6,11,12a-octahydrotetracene-2-carboxamide",27581,DTXSID9022811,CC1(O)C2CC3C(C(O)=C(C(N)=O)C(=O)C3(O)C(O)=C2C(=O)c2c1c(Cl)ccc2O)N(C)C,"InChI=1S/C22H23ClN2O8/c1-21(32)7-6-8-15(25(2)3)17(28)13(20(24)31)19(30)22(8,33)18(29)11(7)16(27)12-10(26)5-4-9(23)14(12)21/h4-5,7-8,15,26,28-29,32-33H,6H2,1-3H3,(H2,24,31)",CYDMQBQPVICBEU-UHFFFAOYSA-N,?,,168.5,100185
100188,57-66-9,57-66-9,CCCN(CCC)S(=O)(=O)c1ccc(cc1)C(O)=O,PROBENECID,Probenecid,4-(dipropylsulfamoyl)benzoic acid,27583,DTXSID9021188,CCCN(CCC)S(=O)(=O)c1ccc(cc1)C(O)=O,"InChI=1S/C13H19NO4S/c1-3-9-14(10-4-2)19(17,18)12-7-5-11(6-8-12)13(15)16/h5-8H,3-4,9-10H2,1-2H3,(H,15,16)",DBABZHXKTCFAPX-UHFFFAOYSA-N,?,,195.0,100188
100189,57-67-0,57-67-0,Nc1ccc(cc1)S(=O)(=O)NC(N)=N,SULFANILYL GUANADINE,Sulfaguanidine,4-amino-N-carbamimidoylbenzenesulfonamide,27584,DTXSID1023609,Nc1ccc(cc1)S(=O)(=O)NC(N)=N,"InChI=1S/C7H10N4O2S/c8-5-1-3-6(4-2-5)14(12,13)11-7(9)10/h1-4H,8H2,(H4,9,10,11)",BRBKOPJOKNSWSG-UHFFFAOYSA-N,?,,191.5,100189
100190,57-68-1,57-68-1,Cc1cc(C)[n]c(NS(=O)(=O)c2ccc(N)cc2)[n]1,SULFAMETHAZINE,Sulfamethazine,"4-amino-N-(4,6-dimethylpyrimidin-2-yl)benzenesulfonamide",27585,DTXSID6021290,Cc1cc(C)[n]c(NS(=O)(=O)c2ccc(N)cc2)[n]1,"InChI=1S/C12H14N4O2S/c1-8-7-9(2)15-12(14-8)16-19(17,18)11-5-3-10(13)4-6-11/h3-7H,13H2,1-2H3,(H,14,15,16)",ASWVTGNCAZCNNR-UHFFFAOYSA-N,?,,198.5,100190
100192,57-74-9,57-74-9,ClC1(Cl)C2(Cl)C3CC(Cl)C(Cl)C3C1(Cl)C(Cl)=C2Cl,CHLORDANE,Chlordane,C10H6Cl8,27587,DTXSID7020267,ClC1(Cl)C2(Cl)C3CC(Cl)C(Cl)C3C1(Cl)C(Cl)=C2Cl,"InChI=1S/C10H6Cl8/c11-3-1-2-4(5(3)12)9(16)7(14)6(13)8(2,15)10(9,17)18/h2-5H,1H2",BIWJNBZANLAXMG-UHFFFAOYSA-N,?,,106.0,100192
100193,57-83-0,57-83-0,CC(=O)[C@H]1CC[C@H]2[C@@H]3CCC4=CC(=O)CC[C@]4(C)[C@H]3CC[C@@]21C,PROGESTERONE,Progesterone,"pregn-4-ene-3,20-dione",27588,DTXSID3022370,CC(=O)C1CCC2C3CCC4=CC(=O)CCC4(C)C3CCC21C,"InChI=1S/C21H30O2/c1-13(22)17-6-7-18-16-5-4-14-12-15(23)8-10-20(14,2)19(16)9-11-21(17,18)3/h12,16-19H,4-11H2,1-3H3",RJKFOVLPORLFTN-UHFFFAOYSA-N,?,,121.0,100193
100194,57-85-2,57-85-2,CCC(=O)O[C@H]1CC[C@H]2[C@@H]3CCC4=CC(=O)CC[C@]4(C)[C@H]3CC[C@]12C,TESTOSTERONE PROPIONATE,Testosterone propionate,(17beta)-3-oxoandrost-4-en-17-yl propanoate,27589,DTXSID9036515,CCC(=O)OC1CCC2C3CCC4=CC(=O)CCC4(C)C3CCC12C,"InChI=1S/C22H32O3/c1-4-20(24)25-19-8-7-17-16-6-5-14-13-15(23)9-11-21(14,2)18(16)10-12-22(17,19)3/h13,16-19H,4-12H2,1-3H3",PDMMFKSKQVNJMI-UHFFFAOYSA-N,?,,120.0,100194
100196,57-88-5|474-77-1,57-88-5|474-77-1,CC(C)CCC[C@@H](C)[C@H]1CC[C@H]2[C@@H]3CC=C4C[C@@H](O)CC[C@]4(C)[C@H]3CC[C@]12C,"CHOLESTEROL, Epicholestrol",Cholesterol,(3beta)-cholest-5-en-3-ol,27591|30508,DTXSID3022401|DTXSID50415281,CC(C)CCCC(C)C1CCC2C3CC=C4CC(O)CCC4(C)C3CCC12C,"InChI=1S/C27H46O/c1-18(2)7-6-8-19(3)23-11-12-24-22-10-9-20-17-21(28)13-15-26(20,4)25(22)14-16-27(23,24)5/h9,18-19,21-25,28H,6-8,10-17H2,1-5H3",HVYWMOMLDIMFJA-UHFFFAOYSA-N,?,,145.0,100196
100198,57-96-5,57-96-5,O=S(CCC1C(=O)N(c2ccccc2)N(c2ccccc2)C1=O)c1ccccc1,SULFOXYPHENYL PYRAZOLIDINE,Sulfinpyrazone,"1,2-diphenyl-4-[2-(phenylsulfinyl)ethyl]pyrazolidine-3,5-dione",27593,DTXSID0023618,O=S(CCC1C(=O)N(c2ccccc2)N(c2ccccc2)C1=O)c1ccccc1,"InChI=1S/C23H20N2O3S/c26-22-21(16-17-29(28)20-14-8-3-9-15-20)23(27)25(19-12-6-2-7-13-19)24(22)18-10-4-1-5-11-18/h1-15,21H,16-17H2",MBGGBVCUIVRRBF-UHFFFAOYSA-N,?,,136.5,100198
100199,57-97-6,57-97-6,Cc1c2ccc3ccccc3c2c(C)c2ccccc12,"7,12-DIME-BENZ(A)ANTHRACENE","7,12-Dimethylbenz(a)anthracene","7,12-dimethyltetraphene",27594,DTXSID1020510,Cc1c2ccc3ccccc3c2c(C)c2ccccc12,"InChI=1S/C20H16/c1-13-16-8-5-6-9-17(16)14(2)20-18(13)12-11-15-7-3-4-10-19(15)20/h3-12H,1-2H3",ARSRBNBHOADGJU-UHFFFAOYSA-N,?,,122.5,100199
100201,58-14-0,58-14-0,CCc1[n]c(N)[n]c(N)c1-c1ccc(Cl)cc1,PYRIMETHAMINE,Pyrimethamine,"5-(4-chlorophenyl)-6-ethylpyrimidine-2,4-diamine",27596,DTXSID9021217,CCc1[n]c(N)[n]c(N)c1-c1ccc(Cl)cc1,"InChI=1S/C12H13ClN4/c1-2-9-10(11(14)17-12(15)16-9)7-3-5-8(13)6-4-7/h3-6H,2H2,1H3,(H4,14,15,16,17)",WKSAUQYGYAYLPV-UHFFFAOYSA-N,?,,233.5,100201
100202,58-15-1,58-15-1,CN(C)C1C(=O)N(c2ccccc2)N(C)C=1C,AMINOPYRINE,4-Dimethylaminoantipyrine,"4-(dimethylamino)-1,5-dimethyl-2-phenyl-1,2-dihydro-3H-pyrazol-3-one",27597,DTXSID7020504,CN(C)C1C(=O)N(c2ccccc2)N(C)C=1C,"InChI=1S/C13H17N3O/c1-10-12(14(2)3)13(17)16(15(10)4)11-8-6-5-7-9-11/h5-9H,1-4H3",RMMXTBMQSGEXHJ-UHFFFAOYSA-N,?,,134.5,100202
100203,58-18-4,58-18-4,C[C@]12CC[C@H]3[C@@H](CCC4=CC(=O)CC[C@@]43C)[C@@H]1CC[C@]2(C)O,17-A-METHYL TESTOSTERONE,17-Methyltestosterone,(17beta)-17-hydroxy-17-methylandrost-4-en-3-one,27598,DTXSID1033664,CC12CCC3C(CCC4=CC(=O)CCC43C)C1CCC2(C)O,"InChI=1S/C20H30O2/c1-18-9-6-14(21)12-13(18)4-5-15-16(18)7-10-19(2)17(15)8-11-20(19,3)22/h12,15-17,22H,4-11H2,1-3H3",GCKMFJBGXUYNAG-UHFFFAOYSA-N,?,,163.0,100203
100205,,58-20-8,C[C@]12CC[C@H]3[C@@H](CCC4=CC(=O)CC[C@@]43C)[C@@H]1CC[C@@H]2OC(=O)CCC1CCCC1,Testosterone cypionate,,,27600,,CC12CCC3C(CCC4=CC(=O)CCC43C)C1CCC2OC(=O)CCC1CCCC1,"InChI=1S/C27H40O3/c1-26-15-13-20(28)17-19(26)8-9-21-22-10-11-24(27(22,2)16-14-23(21)26)30-25(29)12-7-18-5-3-4-6-18/h17-18,21-24H,3-16H2,1-2H3",HPFVBGJFAYZEBE-UHFFFAOYSA-N,?,,155.0,100205
100206,58-22-0,58-22-0,C[C@]12CC[C@H]3[C@@H](CCC4=CC(=O)CC[C@@]43C)[C@@H]1CC[C@@H]2O,TESTOSTERONE,Testosterone,(17beta)-17-hydroxyandrost-4-en-3-one,27601,DTXSID8022371,CC12CCC3C(CCC4=CC(=O)CCC43C)C1CCC2O,"InChI=1S/C19H28O2/c1-18-9-7-13(20)11-12(18)3-4-14-15-5-6-17(21)19(15,2)10-8-16(14)18/h11,14-17,21H,3-10H2,1-2H3",MUMGGOZAMZWBJJ-UHFFFAOYSA-N,?,,155.0,100206
100207,58-25-3,58-25-3,CNC1C[N+]([O-])=C(c2cc(Cl)ccc2N=1)c1ccccc1,LIBRIUM,Chlordiazepoxide,"7-chloro-N-methyl-5-phenyl-3H-1,4-benzodiazepin-2-amine 4-oxide",27602,DTXSID4046022,CNC1C[N+]([O-])=C(c2cc(Cl)ccc2N=1)c1ccccc1,"InChI=1S/C16H14ClN3O/c1-18-15-10-20(21)16(11-5-3-2-4-6-11)13-9-12(17)7-8-14(13)19-15/h2-9H,10H2,1H3,(H,18,19)",ANTSCNMPPGJYLG-UHFFFAOYSA-N,?,,236.2,100207
100210,58-32-2,58-32-2,OCCN(CCO)c1[n]c(c2[n]c([n]c(c2[n]1)N1CCCCC1)N(CCO)CCO)N1CCCCC1,Dipyridamole,Dipyridamole,"2,2',2'',2'''-{[4,8-di(piperidin-1-yl)pyrimido[5,4-d]pyrimidine-2,6-diyl]dinitrilo}tetraethanol",27604,DTXSID6040668,OCCN(CCO)c1[n]c(c2[n]c([n]c(c2[n]1)N1CCCCC1)N(CCO)CCO)N1CCCCC1,"InChI=1S/C24H40N8O4/c33-15-11-31(12-16-34)23-26-20-19(21(27-23)29-7-3-1-4-8-29)25-24(32(13-17-35)14-18-36)28-22(20)30-9-5-2-6-10-30/h33-36H,1-18H2",IZEKFCXSFNUWAM-UHFFFAOYSA-N,?,,163.0,100210
100211,58-33-3,58-33-3,Cl.CN(C)C(C)CN1c2ccccc2Sc2ccccc12,Promethazine hydrochloride [JAN],Promethazine hydrochloride,"N,N-dimethyl-1-(10H-phenothiazin-10-yl)propan-2-amine hydrochloride (1:1)",27605,DTXSID3021192,CN(C)C(C)CN1c2ccccc2Sc2ccccc12,"InChI=1S/C17H20N2S/c1-13(18(2)3)12-19-14-8-4-6-10-16(14)20-17-11-7-5-9-15(17)19/h4-11,13H,12H2,1-3H3",PWWVAXIEGOYWEE-UHFFFAOYSA-N,Cl,18179,228.5,100211
100214,58-38-8,58-38-8,CN1CCN(CCCN2c3ccccc3Sc3ccc(Cl)cc23)CC1,Prochloroperazine,Prochlorperazine,2-chloro-10-[3-(4-methylpiperazin-1-yl)propyl]-10H-phenothiazine,27606,DTXSID7023514,CN1CCN(CCCN2c3ccccc3Sc3ccc(Cl)cc23)CC1,"InChI=1S/C20H24ClN3S/c1-22-11-13-23(14-12-22)9-4-10-24-17-5-2-3-6-19(17)25-20-8-7-16(21)15-18(20)24/h2-3,5-8,15H,4,9-14H2,1H3",WIKYUJGCLQQFNW-UHFFFAOYSA-N,?,,228.0,100214
100216,58-46-8,58-46-8,CC(C)CC1CN2CCc3cc(OC)c(cc3C2CC1=O)OC,Tetrabenazine,Tetrabenazine,"9,10-dimethoxy-3-(2-methylpropyl)-1,3,4,6,7,11b-hexahydro-2H-pyrido[2,1-a]isoquinolin-2-one",27608,DTXSID0042614,CC(C)CC1CN2CCc3cc(OC)c(cc3C2CC1=O)OC,"InChI=1S/C19H27NO3/c1-12(2)7-14-11-20-6-5-13-8-18(22-3)19(23-4)9-15(13)16(20)10-17(14)21/h8-9,12,14,16H,5-7,10-11H2,1-4H3",MKJIEFSOBYUXJB-UHFFFAOYSA-N,?,,128.0,100216
100217,58-54-8,58-54-8,CCC(=C)C(=O)c1ccc(OCC(O)=O)c(Cl)c1Cl,Ethacrynic acid,Ethacrynic acid,"[2,3-dichloro-4-(2-methylidenebutanoyl)phenoxy]acetic acid",27609,DTXSID3025257,CCC(=C)C(=O)c1ccc(OCC(O)=O)c(Cl)c1Cl,"InChI=1S/C13H12Cl2O4/c1-3-7(2)13(18)8-4-5-9(12(15)11(8)14)19-6-10(16)17/h4-5H,2-3,6H2,1H3,(H,16,17)",AVOLMBLBETYQHX-UHFFFAOYSA-N,?,,122.5,100217
100218,58-55-9,58-55-9,CN1C(=O)c2[nH]c[n]c2N(C)C1=O,THEOPHYLLINE,Theophylline,"1,3-dimethyl-3,7-dihydro-1H-purine-2,6-dione",27610,DTXSID5021336,CN1C(=O)c2[nH]c[n]c2N(C)C1=O,"InChI=1S/C7H8N4O2/c1-10-5-4(8-3-9-5)6(12)11(2)7(10)13/h3H,1-2H3,(H,8,9)",ZFXYFBGIUFBOJW-UHFFFAOYSA-N,?,,273.0,100218
100220,58-61-7|5536-17-4,58-61-7,Nc1[n]c[n]c2c1[n]c[n]2[C@@H]1O[C@H](CO)[C@@H](O)[C@H]1O,"ADENOSINE, 9H-PURIN-6-AMINE, 9-.BETA.-D-ARABINOFURANOSYL-",Adenosine,adenosine,27612|34431,DTXSID1022558,Nc1[n]c[n]c2c1[n]c[n]2C1OC(CO)C(O)C1O,"InChI=1S/C10H13N5O4/c11-8-5-9(13-2-12-8)15(3-14-5)10-7(18)6(17)4(1-16)19-10/h2-4,6-7,10,16-18H,1H2,(H2,11,12,13)",OIRDTQYFTABQOQ-UHFFFAOYSA-N,?,,246.375,100220
100222,58-72-0,58-72-0,C(=C(c1ccccc1)c1ccccc1)c1ccccc1,"Benzene, 1,1',1''-(1-ethenyl-2-ylidene)tris-",Triphenylethylene,"1,1',1''-ethene-1,1,2-triyltribenzene",27613,DTXSID3022320,C(=C(c1ccccc1)c1ccccc1)c1ccccc1,InChI=1S/C20H16/c1-4-10-17(11-5-1)16-20(18-12-6-2-7-13-18)19-14-8-3-9-15-19/h1-16H,MKYQPGPNVYRMHI-UHFFFAOYSA-N,?,,72.5,100222
100223,58-73-1,58-73-1,CN(C)CCOC(c1ccccc1)c1ccccc1,DIPHENHYDRAMINE,Diphenhydramine,C17H21NO,27614,DTXSID4022949,CN(C)CCOC(c1ccccc1)c1ccccc1,"InChI=1S/C17H21NO/c1-18(2)13-14-19-17(15-9-5-3-6-10-15)16-11-7-4-8-12-16/h3-12,17H,13-14H2,1-2H3",ZZVUWRFHKOJYTH-UHFFFAOYSA-N,?,,168.0,100223
100225,58-86-6|1114-34-7,50-69-1,OC[C@@H](O)[C@@H](O)[C@@H](O)C=O,"D-Xylose, D-Lyxose",D-Ribose,D-ribose,27616|32793,DTXSID6043917,OCC(O)C(O)C(O)C=O,"InChI=1S/C5H10O5/c6-1-3(8)5(10)4(9)2-7/h1,3-5,7-10H,2H2",PYMYPHUHKUWMLA-UHFFFAOYSA-N,?,,98.5,100225
100227,58-90-2,58-90-2,Oc1c(Cl)cc(Cl)c(Cl)c1Cl,"2,3,4,6-TETRACHLOROPHENOL","2,3,4,6-Tetrachlorophenol","2,3,4,6-tetrachlorophenol",27617,DTXSID9021716,Oc1c(Cl)cc(Cl)c(Cl)c1Cl,"InChI=1S/C6H2Cl4O/c7-2-1-3(8)6(11)5(10)4(2)9/h1,11H",VGVRPFIJEJYOFN-UHFFFAOYSA-N,?,,70.0,100227
100228,58-93-5,58-93-5,NS(=O)(=O)c1cc2c(cc1Cl)NCNS2(=O)=O,HYDROCHLOROTHIAZIDE,Hydrochlorothiazide,"6-chloro-3,4-dihydro-2H-1,2,4-benzothiadiazine-7-sulfonamide 1,1-dioxide",27618,DTXSID2020713,NS(=O)(=O)c1cc2c(cc1Cl)NCNS2(=O)=O,"InChI=1S/C7H8ClN3O4S2/c8-4-1-5-7(2-6(4)16(9,12)13)17(14,15)11-3-10-5/h1-2,10-11H,3H2,(H2,9,12,13)",JZUFKLXOESDKRF-UHFFFAOYSA-N,?,,274.0,100228
100230,59-00-7,59-00-7,OC(=O)C1=CC(=O)c2cccc(O)c2N1,"2-QUINOLINECARBOXYLIC ACID, 4,8-DIHYDROXY-",Xanthurenic acid,8-hydroxy-4-oxo-1H-quinoline-2-carboxylic acid,27620,DTXSID90207728,OC(=O)C1=CC(=O)c2cccc(O)c2N1,"InChI=1S/C10H7NO4/c12-7-3-1-2-5-8(13)4-6(10(14)15)11-9(5)7/h1-4,12H,(H,11,13)(H,14,15)",FBZONXHGGPHHIY-UHFFFAOYSA-N,?,,289.0,100230
100231,59-06-3,59-06-3,CC(=O)Nc1cc(OCC)c(cc1)C(=O)OC,Ethopabate,Ethopabate,methyl 4-(acetylamino)-2-ethoxybenzoate,27621,DTXSID6046264,CC(=O)Nc1cc(OCC)c(cc1)C(=O)OC,"InChI=1S/C12H15NO4/c1-4-17-11-7-9(13-8(2)14)5-6-10(11)12(15)16-3/h5-7H,4H2,1-3H3,(H,13,14)",GOVWOKSKFSBNGD-UHFFFAOYSA-N,?,,148.5,100231
100232,59-14-3,59-14-3,O[C@H]1C[C@@H](O[C@@H]1CO)N1C=C(Br)C(=O)NC1=O,5-BROMODEOXYURIDINE,5-Bromo-2'-deoxyuridine,5-bromo-2'-deoxyuridine,27622,DTXSID7033105,OC1CC(OC1CO)N1C=C(Br)C(=O)NC1=O,"InChI=1S/C9H11BrN2O5/c10-4-2-12(9(16)11-8(4)15)7-1-5(14)6(3-13)17-7/h2,5-7,13-14H,1,3H2,(H,11,15,16)",WOVKYSAHUYNSMH-UHFFFAOYSA-N,?,,192.5,100232