ChemID,source_casrn,CAS,SMILES,NAME,preferred_name,iupac,MPID,dsstox_substance_id,Canonical_QSARr,InChI_Code_QSARr,InChI Key_QSARr,Salt_Solvent,Salt_Solvent_ID,MP,ID
100574,76-58-4,76-58-4,CCOc1ccc2C[C@@H]3[C@@H]4C=C[C@H](O)[C@@H]5Oc1c2[C@]45CCN3C,DIONINE,Ethylmorphine,"(5alpha,6alpha)-3-ethoxy-17-methyl-7,8-didehydro-4,5-epoxymorphinan-6-ol",27920,DTXSID1046760,CCOc1ccc2CC3C4C=CC(O)C5Oc1c2C45CCN3C,"InChI=1S/C19H23NO3/c1-3-22-15-7-4-11-10-13-12-5-6-14(21)18-19(12,8-9-20(13)2)16(11)17(15)23-18/h4-7,12-14,18,21H,3,8-10H2,1-2H3",OGDVEMNWJVYAJL-UHFFFAOYSA-N,?,,200.0,100574
100575,76-59-5,76-59-5,Cc1c(cc(C(C)C)c(O)c1Br)C1(OS(=O)(=O)c2ccccc12)c1cc(C(C)C)c(O)c(Br)c1C,Bromthymol Blue,Bromothymol blue,"2-bromo-4-[3-(3-bromo-4-hydroxy-2-methyl-5-propan-2-ylphenyl)-1,1-dioxobenzo[c]oxathiol-3-yl]-3-methyl-6-propan-2-ylphenol",27921,DTXSID3058799,Cc1c(cc(C(C)C)c(O)c1Br)C1(OS(=O)(=O)c2ccccc12)c1cc(C(C)C)c(O)c(Br)c1C,"InChI=1S/C27H28Br2O5S/c1-13(2)17-11-20(15(5)23(28)25(17)30)27(19-9-7-8-10-22(19)35(32,33)34-27)21-12-18(14(3)4)26(31)24(29)16(21)6/h7-14,30-31H,1-6H3",NUHCTOLBWMJMLX-UHFFFAOYSA-N,?,,201.0,100575
100577,76-62-0,76-62-0,Oc1c(Br)cc(cc1Br)C1(OC(=O)c2ccccc12)c1cc(Br)c(O)c(Br)c1,"3',3"",5',5""-Tetrabromophenolphthalein","1(3H)-Isobenzofuranone, 3,3-bis(3,5-dibromo-4-hydroxyphenyl)-","3,3-bis(3,5-dibromo-4-hydroxyphenyl)-2-benzofuran-1-one",27923,DTXSID0058801,Oc1c(Br)cc(cc1Br)C1(OC(=O)c2ccccc12)c1cc(Br)c(O)c(Br)c1,"InChI=1S/C20H10Br4O4/c21-13-5-9(6-14(22)17(13)25)20(10-7-15(23)18(26)16(24)8-10)12-4-2-1-3-11(12)19(27)28-20/h1-8,25-26H",OBRGVMYQZVQHGO-UHFFFAOYSA-N,?,,296.0,100577
100579,76-65-3,NOCAS_861625,CCN(CCC1(C(=O)Oc2ccccc12)c1ccccc1)CC,Amolanone,,,27924,DTXSID70861625,CCN(CCC1(C(=O)Oc2ccccc12)c1ccccc1)CC,"InChI=1S/C20H23NO2/c1-3-21(4-2)15-14-20(16-10-6-5-7-11-16)17-12-8-9-13-18(17)23-19(20)22/h5-13H,3-4,14-15H2,1-2H3",HPITVGRITATAFY-UHFFFAOYSA-N,?,,43.4,100579
100580,76-66-4,76-66-4,CC[C@H]1CN2CC[C@]3([C@@H]2C[C@@H]1/C(=C\OC)/C(=O)OC)c1ccccc1NC3=O,Rhynchophylline,,,27925,DTXSID70878612,CCC1CN2CCC3(C2CC1C(=COC)C(=O)OC)c1ccccc1NC3=O,"InChI=1S/C22H28N2O4/c1-4-14-12-24-10-9-22(17-7-5-6-8-18(17)23-21(22)26)19(24)11-15(14)16(13-27-2)20(25)28-3/h5-8,13-15,19H,4,9-12H2,1-3H3,(H,23,26)/b16-13-",DAXYUDFNWXHGBE-SSZFMOIBSA-N,?,,216.0,100580
100583,76-74-4,76-74-4,CCC1(C(C)CCC)C(=O)NC(O)=NC1=O,PENTOBARBITAL,Pentobarbital,"5-ethyl-2-hydroxy-5-(pentan-2-yl)pyrimidine-4,6(1H,5H)-dione",27927,DTXSID7023435,CCC1(C(C)CCC)C(=O)NC(O)=NC1=O,"InChI=1S/C11H18N2O3/c1-4-6-7(3)11(5-2)8(14)12-10(16)13-9(11)15/h7H,4-6H2,1-3H3,(H2,12,13,14,15,16)",WEXRUCMBJFQVBZ-UHFFFAOYSA-N,?,,129.5,100583
100584,76-76-6,76-76-6,CCC1(C(C)C)C(=O)NC(=O)NC1=O,PROBARBITAL,Probarbital,"5-ethyl-5-propan-2-yl-1,3-diazinane-2,4,6-trione",27928,DTXSID30226897,CCC1(C(C)C)C(=O)NC(=O)NC1=O,"InChI=1S/C9H14N2O3/c1-4-9(5(2)3)6(12)10-8(14)11-7(9)13/h5H,4H2,1-3H3,(H2,10,11,12,13,14)",HHLXJTDUHFBYAU-UHFFFAOYSA-N,?,,203.0,100584
100585,76-77-7,76-77-7,CC1[C@@H]2CC(O)O[C@@H]3C[C@@H]4[C@@H](C)C=C(OC)C(=O)[C@]4(C)C(C(=O)C=1OC)[C@@]32C,Neoquassin,,,27929,DTXSID30878618,CC1C2CC(O)OC3CC4C(C)C=C(OC)C(=O)C4(C)C(C(=O)C=1OC)C32C,"InChI=1S/C22H30O6/c1-10-7-14(26-5)20(25)22(4)12(10)8-15-21(3)13(9-16(23)28-15)11(2)18(27-6)17(24)19(21)22/h7,10,12-13,15-16,19,23H,8-9H2,1-6H3",BDQNCUODBJZKIY-UHFFFAOYSA-N,?,,227.0,100585
100587,76-80-2,76-80-2,CC1(C)C=Cc2c3O[C@@H]4COc5cc(OC)c(cc5[C@]4(O)C(=O)c3ccc2O1)OC,Tephrosin,,,27931,DTXSID20878627,CC1(C)C=Cc2c3OC4COc5cc(OC)c(cc5C4(O)C(=O)c3ccc2O1)OC,"InChI=1S/C23H22O7/c1-22(2)8-7-12-15(30-22)6-5-13-20(12)29-19-11-28-16-10-18(27-4)17(26-3)9-14(16)23(19,25)21(13)24/h5-10,19,25H,11H2,1-4H3",AQBZCCQCDWNNJQ-UHFFFAOYSA-N,?,,198.0,100587
100588,76-83-5,76-83-5,ClC(c1ccccc1)(c1ccccc1)c1ccccc1,"BENZENE, 1,1',1''-(CHLOROMETHYLIDYNE)TRIS-",Trityl chloride,"1,1',1''-(chloromethanetriyl)tribenzene",27932,DTXSID3052511,ClC(c1ccccc1)(c1ccccc1)c1ccccc1,"InChI=1S/C19H15Cl/c20-19(16-10-4-1-5-11-16,17-12-6-2-7-13-17)18-14-8-3-9-15-18/h1-15H",JBWKIWSBJXDJDT-UHFFFAOYSA-N,?,,113.5,100588
100589,76-84-6,76-84-6,OC(c1ccccc1)(c1ccccc1)c1ccccc1,TRIPHENYLCARBINOL,"Benzenemethanol, .alpha.,.alpha.-diphenyl-",tri(phenyl)methanol,27933,DTXSID0058803,OC(c1ccccc1)(c1ccccc1)c1ccccc1,"InChI=1S/C19H16O/c20-19(16-10-4-1-5-11-16,17-12-6-2-7-13-17)18-14-8-3-9-15-18/h1-15,20H",LZTRCELOJRDYMQ-UHFFFAOYSA-N,?,,164.2,100589
100592,76-89-1,76-89-1,COC(=O)C(O)(c1ccccc1)c1ccccc1,"Benzeneacetic acid, .alpha.-hydroxy-.alpha.-phen","Benzeneacetic acid, .alpha.-hydroxy-.alpha.-phenyl-, methyl ester","methyl 2-hydroxy-2,2-di(phenyl)acetate",27935,DTXSID5058804,COC(=O)C(O)(c1ccccc1)c1ccccc1,"InChI=1S/C15H14O3/c1-18-14(16)15(17,12-8-4-2-5-9-12)13-10-6-3-7-11-13/h2-11,17H,1H3",LJFIHTFNTGQZJL-UHFFFAOYSA-N,?,,75.8,100592
100593,76-93-7,76-93-7,OC(=O)C(O)(c1ccccc1)c1ccccc1,BENZILIC ACID,Benzilic acid,"2-hydroxy-2,2-di(phenyl)acetic acid",27936,DTXSID0058805,OC(=O)C(O)(c1ccccc1)c1ccccc1,"InChI=1S/C14H12O3/c15-13(16)14(17,11-7-3-1-4-8-11)12-9-5-2-6-10-12/h1-10,17H,(H,15,16)",UKXSKSHDVLQNKG-UHFFFAOYSA-N,?,,151.0,100593
100594,76-94-8,76-94-8,CC1(c2ccccc2)C(=O)NC(=O)NC1=O,"BARBITURIC ACID,5-ME-5-PHENYL-",Phenylmethylbarbituric acid,"5-methyl-5-phenyl-1,3-diazinane-2,4,6-trione",27937,DTXSID00226900,CC1(c2ccccc2)C(=O)NC(=O)NC1=O,"InChI=1S/C11H10N2O3/c1-11(7-5-3-2-4-6-7)8(14)12-10(16)13-9(11)15/h2-6H,1H3,(H2,12,13,14,15,16)",LSAOZCAKUIANSQ-UHFFFAOYSA-N,?,,220.0,100594
100596,77-03-2,77-03-2,CCC1(CC)C(=O)NCCC1=O,Piperdione,"3,3-Diethyl-2,4-dioxopiperidine","3,3-Diethylpiperidine-2,4-dione",27939,DTXSID30227804,CCC1(CC)C(=O)NCCC1=O,"InChI=1S/C9H15NO2/c1-3-9(4-2)7(11)5-6-10-8(9)12/h3-6H2,1-2H3,(H,10,12)",RGEVWUKXWFOAID-UHFFFAOYSA-N,?,,104.0,100596
100597,77-04-3,77-04-3,CCC1(CC)C(=O)NC=CC1=O,"2,4(1H,3H)-PYRIDINEDIONE, 3,3-DIETHYL-",Pyrithyldione,"3,3-diethylpyridine-2,4(1H,3H)-dione",27940,DTXSID4045262,CCC1(CC)C(=O)NC=CC1=O,"InChI=1S/C9H13NO2/c1-3-9(4-2)7(11)5-6-10-8(9)12/h5-6H,3-4H2,1-2H3,(H,10,12)",NZASCBIBXNPDMH-UHFFFAOYSA-N,?,,90.7,100597
100598,77-06-5,77-06-5,C[C@]12[C@H]3[C@H](C(O)=O)[C@@]45C[C@@](O)(CC[C@H]4[C@@]3(C=C[C@@H]1O)OC2=O)C(=C)C5,GIBBERELLIC ACID,Gibberellic acid,"(1S,2S,4aR,4bR,7S,9aS,10S,10aR)-2,7-dihydroxy-1-methyl-8-methylidene-13-oxo-1,2,4b,5,6,7,8,9,10,10a-decahydro-4a,1-(epoxymethano)-7,9a-methanobenzo[a]azulene-10-carboxylic acid",27941,DTXSID0020656,CC12C3C(C(O)=O)C45CC(O)(CCC4C3(C=CC1O)OC2=O)C(=C)C5,"InChI=1S/C19H22O6/c1-9-7-17-8-18(9,24)5-3-10(17)19-6-4-11(20)16(2,15(23)25-19)13(19)12(17)14(21)22/h4,6,10-13,20,24H,1,3,5,7-8H2,2H3,(H,21,22)",IXORZMNAPKEEDV-UHFFFAOYSA-N,?,,234.0,100598
100600,77-09-8,77-09-8,Oc1ccc(cc1)C1(OC(=O)c2ccccc12)c1ccc(O)cc1,PHENOLPHTHALEIN,Phenolphthalein,"3,3-bis(4-hydroxyphenyl)-2-benzofuran-1(3H)-one",27943,DTXSID0021125,Oc1ccc(cc1)C1(OC(=O)c2ccccc12)c1ccc(O)cc1,"InChI=1S/C20H14O4/c21-15-9-5-13(6-10-15)20(14-7-11-16(22)12-8-14)18-4-2-1-3-17(18)19(23)24-20/h1-12,21-22H",KJFMBFZCATUALV-UHFFFAOYSA-N,?,,262.5,100600
100601,77-10-1,77-10-1,C1CCCCN1C1(CCCCC1)c1ccccc1,Phencyclidine,Phencyclidine,1-(1-phenylcyclohexyl)piperidine,27944,DTXSID6023446,C1CCCCN1C1(CCCCC1)c1ccccc1,"InChI=1S/C17H25N/c1-4-10-16(11-5-1)17(12-6-2-7-13-17)18-14-8-3-9-15-18/h1,4-5,10-11H,2-3,6-9,12-15H2",JTJMJGYZQZDUJJ-UHFFFAOYSA-N,?,,46.5,100601
100602,77-21-4,77-21-4,CCC1(CCC(=O)NC1=O)c1ccccc1,2-ETHYL-2-PHENYLGLUTERIMIDE,Glutethimide,"3-ethyl-3-phenylpiperidine-2,6-dione",27945,DTXSID1023102,CCC1(CCC(=O)NC1=O)c1ccccc1,"InChI=1S/C13H15NO2/c1-2-13(10-6-4-3-5-7-10)9-8-11(15)14-12(13)16/h3-7H,2,8-9H2,1H3,(H,14,15,16)",JMBQKKAJIKAWKF-UHFFFAOYSA-N,?,,84.0,100602
100604,77-27-0,77-27-0,CCCC(C)C1(CC=C)C(=O)NC(=S)NC1=O,THIAMYLAL,Thiamylal,"5-(pentan-2-yl)-5-(prop-2-en-1-yl)-2-thioxodihydropyrimidine-4,6(1H,5H)-dione",27947,DTXSID3048441,CCCC(C)C1(CC=C)C(=O)NC(=S)NC1=O,"InChI=1S/C12H18N2O2S/c1-4-6-8(3)12(7-5-2)9(15)13-11(17)14-10(12)16/h5,8H,2,4,6-7H2,1,3H3,(H2,13,14,15,16,17)",XLOMZPUITCYLMJ-UHFFFAOYSA-N,?,,132.5,100604
100605,77-28-1,77-28-1,CCCCC1(CC)C(=O)NC(=O)NC1=O,5-BUTYL-5-ETHYLBARBITURIC ACID,Butethal [NF],"5-butyl-5-ethyl-1,3-diazinane-2,4,6-trione",27948,DTXSID70227808,CCCCC1(CC)C(=O)NC(=O)NC1=O,"InChI=1S/C10H16N2O3/c1-3-5-6-10(4-2)7(13)11-9(15)12-8(10)14/h3-6H2,1-2H3,(H2,11,12,13,14,15)",STDBAQMTJLUMFW-UHFFFAOYSA-N,?,,128.5,100605
100606,77-32-7,77-32-7,CCC1(CC)C(=O)NC(=S)NC1=O,THIOBARBITAL,Thiobarbital,"5,5-diethyl-2-sulfanylidene-1,3-diazinane-4,6-dione",27949,DTXSID40227810,CCC1(CC)C(=O)NC(=S)NC1=O,"InChI=1S/C8H12N2O2S/c1-3-8(4-2)5(11)9-7(13)10-6(8)12/h3-4H2,1-2H3,(H2,9,10,11,12,13)",QGVNJRROSLYGKF-UHFFFAOYSA-N,?,,180.0,100606
100608,77-37-2,77-37-2,OC(CCN1CCCC1)(C1CCCCC1)c1ccccc1,Procyclidine,Procyclidine,1-cyclohexyl-1-phenyl-3-(pyrrolidin-1-yl)propan-1-ol,27951,DTXSID2023515,OC(CCN1CCCC1)(C1CCCCC1)c1ccccc1,"InChI=1S/C19H29NO/c21-19(17-9-3-1-4-10-17,18-11-5-2-6-12-18)13-16-20-14-7-8-15-20/h1,3-4,9-10,18,21H,2,5-8,11-16H2",WYDUSKDSKCASEF-UHFFFAOYSA-N,?,,86.0,100608
100609,77-40-7,77-40-7,CCC(C)(c1ccc(O)cc1)c1ccc(O)cc1,"2,2-bis(4-hydroxyphenyl)butane",Bisphenol B,"4,4'-butane-2,2-diyldiphenol",27952,DTXSID4022442,CCC(C)(c1ccc(O)cc1)c1ccc(O)cc1,"InChI=1S/C16H18O2/c1-3-16(2,12-4-8-14(17)9-5-12)13-6-10-15(18)11-7-13/h4-11,17-18H,3H2,1-2H3",HTVITOHKHWFJKO-UHFFFAOYSA-N,?,,120.5,100609
100610,77-41-8,77-41-8,CN1C(=O)CC(C)(c2ccccc2)C1=O,METHSUXIMIDE,Methsuximide,"1,3-dimethyl-3-phenylpyrrolidine-2,5-dione",27953,DTXSID5023293,CN1C(=O)CC(C)(c2ccccc2)C1=O,"InChI=1S/C12H13NO2/c1-12(9-6-4-3-5-7-9)8-10(14)13(2)11(12)15/h3-7H,8H2,1-2H3",AJXPJJZHWIXJCJ-UHFFFAOYSA-N,?,,52.5,100610
100612,77-47-4,77-47-4,ClC1(Cl)C(Cl)=C(Cl)C(Cl)=C1Cl,HEXACHLOROCYCLOPENTADIENE,Hexachlorocyclopentadiene,"1,2,3,4,5,5-hexachlorocyclopenta-1,3-diene",27955,DTXSID2020688,ClC1(Cl)C(Cl)=C(Cl)C(Cl)=C1Cl,"InChI=1S/C5Cl6/c6-1-2(7)4(9)5(10,11)3(1)8",VUNCWTMEJYMOOR-UHFFFAOYSA-N,?,,-9.0,100612
100613,77-49-6,77-49-6,CC(CO)(CO)[N+]([O-])=O,"2-METHYL-2-NITROPROPANE-1,3-DIOL","2-Methyl-2-nitro-1,3-propanediol","2-methyl-2-nitropropane-1,3-diol",27956,DTXSID5041437,CC(CO)(CO)[N+]([O-])=O,"InChI=1S/C4H9NO4/c1-4(2-6,3-7)5(8)9/h6-7H,2-3H2,1H3",LOTYADDQWWVBDJ-UHFFFAOYSA-N,?,,150.1,100613
100614,77-50-9,469-62-5,CCC(=O)O[C@@](Cc1ccccc1)([C@H](C)CN(C)C)c1ccccc1,Propoxyphene,Propoxyphene,"(2S,3R)-4-(dimethylamino)-3-methyl-1,2-diphenylbutan-2-yl propanoate",27957,DTXSID1023524,CCC(=O)OC(Cc1ccccc1)(C(C)CN(C)C)c1ccccc1,"InChI=1S/C22H29NO2/c1-5-21(24)25-22(18(2)17-23(3)4,20-14-10-7-11-15-20)16-19-12-8-6-9-13-19/h6-15,18H,5,16-17H2,1-4H3",XLMALTXPSGQGBX-UHFFFAOYSA-N,?,,75.5,100614
100616,77-53-2,77-53-2,CC1(C)[C@@H]2CC[C@@H](C)[C@@]32C[C@H]1[C@](C)(O)CC3,Cedrol,(+)-Cedrol,C15H26O,27959,DTXSID1041269,CC1(C)C2CCC(C)C32CC1C(C)(O)CC3,"InChI=1S/C15H26O/c1-10-5-6-11-13(2,3)12-9-15(10,11)8-7-14(12,4)16/h10-12,16H,5-9H2,1-4H3",SVURIXNDRWRAFU-UHFFFAOYSA-N,?,,86.0,100616
100617,77-59-8,77-59-8,C[C@@H]1CN[C@@]2(CC1)O[C@H]1C[C@H]3[C@@H]4CC[C@H]5C[C@@H](O)CC[C@]5(C)[C@H]4CC[C@]3(C)[C@H]1[C@@H]2C,TOMATIDINE,Tomatidine,"(3beta,5alpha,25S)-spirosolan-3-ol",27960,DTXSID0037102,CC1CNC2(CC1)OC1CC3C4CCC5CC(O)CCC5(C)C4CCC3(C)C1C2C,"InChI=1S/C27H45NO2/c1-16-7-12-27(28-15-16)17(2)24-23(30-27)14-22-20-6-5-18-13-19(29)8-10-25(18,3)21(20)9-11-26(22,24)4/h16-24,28-29H,5-15H2,1-4H3",XYNPYHXGMWJBLV-UHFFFAOYSA-N,?,,210.5,100617
100618,,77-60-1|126-18-1|126-19-2,C[C@H]1CO[C@]2(CC1)O[C@H]1C[C@H]3[C@@H]4CC[C@H]5C[C@@H](O)CC[C@]5(C)[C@H]4CC[C@]3(C)[C@H]1[C@@H]2C,"TIGOGENIN, Smilagenin, SPIROSTAN-3-OL, (3.BETA.,5.BETA.,25S)-",,,27961|29696|29697,,CC1COC2(CC1)OC1CC3C4CCC5CC(O)CCC5(C)C4CCC3(C)C1C2C,"InChI=1S/C27H44O3/c1-16-7-12-27(29-15-16)17(2)24-23(30-27)14-22-20-6-5-18-13-19(28)8-10-25(18,3)21(20)9-11-26(22,24)4/h16-24,28H,5-15H2,1-4H3",GMBQZIIUCVWOCD-UHFFFAOYSA-N,?,,196.99999999999997,100618
100620,77-65-6,77-65-6,CCC(Br)(CC)C(=O)NC(N)=O,CARBROMAL,Carbromal,2-bromo-N-carbamoyl-2-ethylbutanamide,27963,DTXSID8020252,CCC(Br)(CC)C(=O)NC(N)=O,"InChI=1S/C7H13BrN2O2/c1-3-7(8,4-2)5(11)10-6(9)12/h3-4H2,1-2H3,(H3,9,10,11,12)",OPNPQXLQERQBBV-UHFFFAOYSA-N,?,,118.0,100620
100621,77-66-7,77-66-7,CC(=O)NC(=O)NC(=O)C(Br)(CC)CC,Acecarbromal,"Butanamide, N-[(acetylamino)carbonyl]-2-bromo-2-ethyl-",N-(acetylcarbamoyl)-2-bromo-2-ethylbutanamide,27964,DTXSID9058810,CC(=O)NC(=O)NC(=O)C(Br)(CC)CC,"InChI=1S/C9H15BrN2O3/c1-4-9(10,5-2)7(14)12-8(15)11-6(3)13/h4-5H2,1-3H3,(H2,11,12,13,14,15)",SAZUGELZHZOXHB-UHFFFAOYSA-N,?,,109.0,100621
100622,77-67-8,77-67-8,CCC1(C)CC(=O)NC1=O,ETHOSUXIMIDE,Ethosuximide,"3-ethyl-3-methylpyrrolidine-2,5-dione",27965,DTXSID7023019,CCC1(C)CC(=O)NC1=O,"InChI=1S/C7H11NO2/c1-3-7(2)4-5(9)8-6(7)10/h3-4H2,1-2H3,(H,8,9,10)",HAPOVYFOVVWLRS-UHFFFAOYSA-N,?,,65.0,100622
100624,77-73-6|1755-01-7,77-73-6,C1C=CC2C3CC(C=C3)C21,"DICYCLOPENTADIENE, 3a,4,7,7a-Tetrahydro-1H-4,7-methano-indene",Dicyclopentadiene,"3a,4,7,7a-tetrahydro-1H-4,7-methanoindene",27967|33219,DTXSID5025023,C1C=CC2C3CC(C=C3)C21,"InChI=1S/C10H12/c1-2-9-7-4-5-8(6-7)10(9)3-1/h1-2,4-5,7-10H,3,6H2",HECLRDQVFMWTQS-UHFFFAOYSA-N,?,,15.5,100624
100625,77-74-7,77-74-7,CC(O)(CC)CC,3-METHYL-3-PENTANOL,3-Methyl-3-pentanol,3-methylpentan-3-ol,27968,DTXSID0021755,CC(O)(CC)CC,"InChI=1S/C6H14O/c1-4-6(3,7)5-2/h7H,4-5H2,1-3H3",FRDAATYAJDYRNW-UHFFFAOYSA-N,?,,-23.6,100625
100626,77-75-8,77-75-8,CCC(C)(O)C#C,METHYL PENTYNOL,3-Methyl-1-pentyn-3-ol,3-methylpent-1-yn-3-ol,27969,DTXSID5021756,CCC(C)(O)C#C,"InChI=1S/C6H10O/c1-4-6(3,7)5-2/h1,7H,5H2,2-3H3",QXLPXWSKPNOQLE-UHFFFAOYSA-N,?,,30.5,100626
100628,77-77-0,77-77-0,C=CS(=O)(=O)C=C,"1,1'-SULFONYLBISETHENE",Divinyl sulfone,diethenyl sulfone,27971,DTXSID6031253,C=CS(=O)(=O)C=C,"InChI=1S/C4H6O2S/c1-3-7(5,6)4-2/h3-4H,1-2H2",AFOSIXZFDONLBT-UHFFFAOYSA-N,?,,-26.0,100628
100629,77-78-1,77-78-1,COS(=O)(=O)OC,DIMETHYLSULFATE,Dimethyl sulfate,dimethyl sulfate,27972,DTXSID5024055,COS(=O)(=O)OC,"InChI=1S/C2H6O4S/c1-5-7(3,4)6-2/h1-2H3",VAYGXNSJCAHWJZ-UHFFFAOYSA-N,?,,-27.0,100629
100630,77-79-2,77-79-2,O=S1(=O)CC=CC1,"2,5-DIHYDROTHIOPHENE 1,1-DIOXIDE",3-Sulfolene,"2,5-dihydrothiophene 1,1-dioxide",27973,DTXSID6021294,O=S1(=O)CC=CC1,"InChI=1S/C4H6O2S/c5-7(6)3-1-2-4-7/h1-2H,3-4H2",MBDNRNMVTZADMQ-UHFFFAOYSA-N,?,,64.5,100630
100633,77-84-9,77-84-9,CCC(C)(CO)CO,"2-Ethyl-2-methyl-1,3-propanediol","2-Ethyl-2-methylpropane-1,3-diol","2-Ethyl-2-methylpropane-1,3-diol",27975,DTXSID20227813,CCC(C)(CO)CO,"InChI=1S/C6H14O2/c1-3-6(2,4-7)5-8/h7-8H,3-5H2,1-2H3",VNAWKNVDKFZFSU-UHFFFAOYSA-N,?,,40.3,100633
100634,77-85-0,77-85-0,CC(CO)(CO)CO,"1,3-Propanediol, 2-(hydroxymethyl)-2-methyl-","2-(Hydroxymethyl)-2-methyl-1,3-propanediol","2-(hydroxymethyl)-2-methylpropane-1,3-diol",27976,DTXSID2026444,CC(CO)(CO)CO,"InChI=1S/C5H12O3/c1-5(2-6,3-7)4-8/h6-8H,2-4H2,1H3",QXJQHYBHAIHNGG-UHFFFAOYSA-N,?,,204.0,100634
100636,77-90-7,77-90-7,CC(=O)OC(CC(=O)OCCCC)(CC(=O)OCCCC)C(=O)OCCCC,ACETYL TRIBUTYL CITRATE,Acetyl tributyl citrate,"tributyl 2-(acetyloxy)propane-1,2,3-tricarboxylate",27977,DTXSID2026446,CC(=O)OC(CC(=O)OCCCC)(CC(=O)OCCCC)C(=O)OCCCC,"InChI=1S/C20H34O8/c1-5-8-11-25-17(22)14-20(28-16(4)21,19(24)27-13-10-7-3)15-18(23)26-12-9-6-2/h5-15H2,1-4H3",QZCLKYGREBVARF-UHFFFAOYSA-N,?,,-80.0,100636
100639,77-94-1,77-94-1,CCCCOC(=O)C(O)(CC(=O)OCCCC)CC(=O)OCCCC,Butyl Citrate,Tributyl citrate,"tributyl 2-hydroxypropane-1,2,3-tricarboxylate",27979,DTXSID5051442,CCCCOC(=O)C(O)(CC(=O)OCCCC)CC(=O)OCCCC,"InChI=1S/C18H32O7/c1-4-7-10-23-15(19)13-18(22,17(21)25-12-9-6-3)14-16(20)24-11-8-5-2/h22H,4-14H2,1-3H3",ZFOZVQLOBQUTQQ-UHFFFAOYSA-N,?,,-20.0,100639
100640,77-95-2,86-68-0,O[C@@H]1[C@H](O)C[C@](O)(CC1O)C(O)=O,Quinic acid,,,27980,DTXSID70323339,OC1C(O)CC(O)(CC1O)C(O)=O,"InChI=1S/C7H12O6/c8-3-1-7(13,6(11)12)2-4(9)5(3)10/h3-5,8-10,13H,1-2H2,(H,11,12)",AAWZDTNXLSGCEK-UHFFFAOYSA-N,?,,162.5,100640
100644,78-05-7,78-05-7,[Cl-].CC(C)(C)CC(C)(C)c1ccc(cc1)OCC[N+](Cc1ccccc1)(CC)CC,Phenoctide,,,27981,DTXSID50878675,CC(C)(C)CC(C)(C)c1ccc(cc1)OCC[N+](Cc1ccccc1)(CC)CC,"InChI=1S/C27H42NO/c1-8-28(9-2,21-23-13-11-10-12-14-23)19-20-29-25-17-15-24(16-18-25)27(6,7)22-26(3,4)5/h10-18H,8-9,19-22H2,1-7H3/q+1",BSFQRHLBLCUWLG-UHFFFAOYSA-N,[Cl-],18179,113.0,100644
100646,78-11-5,78-11-5,[O-][N+](=O)OCC(CO[N+]([O-])=O)(CO[N+]([O-])=O)CO[N+]([O-])=O,PENTAERYTHRITOL TETRANITRATE,Pentaerythritol tetranitrate,"3-(nitrooxy)-2,2-bis[(nitrooxy)methyl]propyl nitrate",27983,DTXSID2023430,[O-][N+](=O)OCC(CO[N+]([O-])=O)(CO[N+]([O-])=O)CO[N+]([O-])=O,"InChI=1S/C5H8N4O12/c10-6(11)18-1-5(2-19-7(12)13,3-20-8(14)15)4-21-9(16)17/h1-4H2",TZRXHJWUDPFEEY-UHFFFAOYSA-N,?,,140.5,100646
100648,78-24-0,78-24-0,OCC(COCC(COCC(CO)(CO)CO)(CO)CO)(CO)CO,Tripentaerythritol,"2,2'-{[2,2-Bis(hydroxymethyl)propane-1,3-diyl]bis(oxymethanediyl)}bis[2-(hydroxymethyl)propane-1,3-diol]","2,2'-{[2,2-bis(hydroxymethyl)propane-1,3-diyl]bis(oxymethanediyl)}bis[2-(hydroxymethyl)propane-1,3-diol]",27984,DTXSID0044991,OCC(COCC(COCC(CO)(CO)CO)(CO)CO)(CO)CO,"InChI=1S/C15H32O10/c16-1-13(2-17,3-18)9-24-11-15(7-22,8-23)12-25-10-14(4-19,5-20)6-21/h16-23H,1-12H2",PTJWCLYPVFJWMP-UHFFFAOYSA-N,?,,249.0,100648
100649,78-26-2,78-26-2,CCCC(C)(CO)CO,"1,3-Propanediol, 2-methyl-2-propyl-","1,3-Propanediol, 2-methyl-2-propyl-","2-Methyl-2-propylpropane-1,3-diol",27985,DTXSID9058814,CCCC(C)(CO)CO,"InChI=1S/C7H16O2/c1-3-4-7(2,5-8)6-9/h8-9H,3-6H2,1-2H3",JVZZUPJFERSVRN-UHFFFAOYSA-N,?,,62.5,100649
100651,78-28-4,78-28-4,CC(CC)(CC)OC(N)=O,"3-Pentanol, 3-methyl-, carbamate",Emylcamate,3-methylpentan-3-yl carbamate,27987,DTXSID40228645,CC(CC)(CC)OC(N)=O,"InChI=1S/C7H15NO2/c1-4-7(3,5-2)10-6(8)9/h4-5H2,1-3H3,(H2,8,9)",SLWGJZPKHAXZQL-UHFFFAOYSA-N,?,,56.0,100651
100653,78-32-0,78-32-0,Cc1ccc(cc1)OP(=O)(Oc1ccc(C)cc1)Oc1ccc(C)cc1,TRI-P-CRESYL PHOSPHATE,Tris(4-methylphenyl) phosphate,tris(4-methylphenyl) phosphate,27988,DTXSID5052676,Cc1ccc(cc1)OP(=O)(Oc1ccc(C)cc1)Oc1ccc(C)cc1,"InChI=1S/C21H21O4P/c1-16-4-10-19(11-5-16)23-26(22,24-20-12-6-17(2)7-13-20)25-21-14-8-18(3)9-15-21/h4-15H,1-3H3",BOSMZFBHAYFUBJ-UHFFFAOYSA-N,?,,77.5,100653
100654,78-34-2,78-34-2,CCOP(=S)(OCC)SC1OCCOC1SP(=S)(OCC)OCC,DIOXATHION,Dioxathion,"S,S'-1,4-dioxane-2,3-diyl O,O,O',O'-tetraethyl bis(phosphorodithioate)",27989,DTXSID9020534,CCOP(=S)(OCC)SC1OCCOC1SP(=S)(OCC)OCC,"InChI=1S/C12H26O6P2S4/c1-5-15-19(21,16-6-2)23-11-12(14-10-9-13-11)24-20(22,17-7-3)18-8-4/h11-12H,5-10H2,1-4H3",VBKKVDGJXVOLNE-UHFFFAOYSA-N,?,,-20.0,100654
100656,78-41-1,78-41-1,Cc1ccc(cc1)C(O)(Cc1ccc(Cl)cc1)c1ccc(cc1)OCCN(CC)CC,Triparanol,Triparanol,2-(4-chlorophenyl)-1-{4-[2-(diethylamino)ethoxy]phenyl}-1-(4-methylphenyl)ethanol,27991,DTXSID6046507,Cc1ccc(cc1)C(O)(Cc1ccc(Cl)cc1)c1ccc(cc1)OCCN(CC)CC,"InChI=1S/C27H32ClNO2/c1-4-29(5-2)18-19-31-26-16-12-24(13-17-26)27(30,23-10-6-21(3)7-11-23)20-22-8-14-25(28)15-9-22/h6-17,30H,4-5,18-20H2,1-3H3",SYHDSBBKRLVLFF-UHFFFAOYSA-N,?,,103.0,100656
100657,78-42-2,78-42-2,CCCCC(COP(=O)(OCC(CCCC)CC)OCC(CCCC)CC)CC,TRIS(2-ETHYLHEXYL) PHOSPHATE,Tris(2-ethylhexyl) phosphate,tris(2-ethylhexyl) phosphate,27992,DTXSID0021414,CCCCC(COP(=O)(OCC(CCCC)CC)OCC(CCCC)CC)CC,"InChI=1S/C24H51O4P/c1-7-13-16-22(10-4)19-26-29(25,27-20-23(11-5)17-14-8-2)28-21-24(12-6)18-15-9-3/h22-24H,7-21H2,1-6H3",GTVWRXDRKAHEAD-UHFFFAOYSA-N,?,,-74.0,100657
100658,78-44-4,78-44-4,CCCC(C)(COC(N)=O)COC(=O)NC(C)C,Carisoprodol,Carisoprodol,2-[(carbamoyloxy)methyl]-2-methylpentyl propan-2-ylcarbamate,27993,DTXSID8024733,CCCC(C)(COC(N)=O)COC(=O)NC(C)C,"InChI=1S/C12H24N2O4/c1-5-6-12(4,7-17-10(13)15)8-18-11(16)14-9(2)3/h9H,5-8H2,1-4H3,(H2,13,15)(H,14,16)",OFZCIYFFPZCNJE-UHFFFAOYSA-N,?,,92.0,100658
100660,78-57-9,78-57-9,COP(=S)(OC)SCc1[n]c(N)[n]c(N)[n]1,MENAZON,Menazon,"S-[(4,6-diamino-1,3,5-triazin-2-yl)methyl] O,O-dimethyl phosphorodithioate",27995,DTXSID9042120,COP(=S)(OC)SCc1[n]c(N)[n]c(N)[n]1,"InChI=1S/C6H12N5O2PS2/c1-12-14(15,13-2)16-3-4-9-5(7)11-6(8)10-4/h3H2,1-2H3,(H4,7,8,9,10,11)",SUYHYHLFUHHVJQ-UHFFFAOYSA-N,?,,165.0,100660
100661,78-59-1,78-59-1,CC1CC(C)(C)CC(=O)C=1,ISOPHORONE,Isophorone,"3,5,5-trimethylcyclohex-2-en-1-one",27996,DTXSID8020759,CC1CC(C)(C)CC(=O)C=1,"InChI=1S/C9H14O/c1-7-4-8(10)6-9(2,3)5-7/h4H,5-6H2,1-3H3",HJOVHMDZYOCNQW-UHFFFAOYSA-N,?,,-8.1,100661