ChemID,source_casrn,CAS,SMILES,NAME,preferred_name,iupac,MPID,dsstox_substance_id,Canonical_QSARr,InChI_Code_QSARr,InChI Key_QSARr,Salt_Solvent,Salt_Solvent_ID,MP,ID
105299,685-63-2,685-63-2,FC(F)=C(F)C(F)=C(F)F,"1,3-Butadiene, 1,1,2,3,4,4-hexafluoro-","Hexafluoro-1,3-butadiene","1,1,2,3,4,4-Hexafluorobuta-1,3-diene",32249,DTXSID4060991,FC(F)=C(F)C(F)=C(F)F,InChI=1S/C4F6/c5-1(3(7)8)2(6)4(9)10,LGPPATCNSOSOQH-UHFFFAOYSA-N,?,,-132.0,105299
105303,689-89-4|1515-80-6,689-89-4|1515-80-6,C/C=C/C=C/C(=O)OC,"2,4-Hexadienoic acid, methyl ester, (E,E)-, 2,4-HEXADIENOIC ACID, METHYL ESTER",,,32253|33049,DTXSID30862370|DTXSID30878956,CC=CC=CC(=O)OC,"InChI=1S/C7H10O2/c1-3-4-5-6-7(8)9-2/h3-6H,1-2H3/b4-3+,6-5+",KWKVAGQCDSHWFK-VNKDHWASSA-N,?,,15.0,105303
105309,692-24-0,692-24-0,CC/C=C/C(C)C,"3-HEXENE, 2-METHYL-, (E)-",,,32257,DTXSID90879000,CCC=CC(C)C,"InChI=1S/C7H14/c1-4-5-6-7(2)3/h5-7H,4H2,1-3H3/b6-5+",IQANHWBWTVLDTP-AATRIKPKSA-N,?,,-141.6,105309
105313,693-21-0,693-21-0,[O-][N+](=O)OCCOCCO[N+]([O-])=O,"DIETHYLENE DIGLYCOL, DINITRATE",Diethylene glycol dinitrate,"oxydiethane-2,1-diyl dinitrate",32261,DTXSID1024047,[O-][N+](=O)OCCOCCO[N+]([O-])=O,InChI=1S/C4H8N2O7/c7-5(8)12-3-1-11-2-4-13-6(9)10/h1-4H2,LYAGTVMJGHTIDH-UHFFFAOYSA-N,?,,-11.3,105313
105317,693-61-8|821-96-5,693-61-8|821-96-5,C/C=C/CCCCCCCC,"2-UNDECENE, (E)-, 2-UNDECENE, (Z)-",,,32265|32465,DTXSID10876612|DTXSID50876611,CC=CCCCCCCCC,"InChI=1S/C11H22/c1-3-5-7-9-11-10-8-6-4-2/h3,5H,4,6-11H2,1-2H3/b5-3+",JOHIXGUTSXXADV-HWKANZROSA-N,?,,-57.4,105317
105322,693-89-0,NOCAS_870755,CC1CCCC=1,"CYCLOPENTENE, 1-METHYL-",,,32269,DTXSID50870755,CC1CCCC=1,"InChI=1S/C6H10/c1-6-4-2-3-5-6/h4H,2-3,5H2,1H3",ATQUFXWBVZUTKO-UHFFFAOYSA-N,?,,-126.5,105322
105326,694-59-7,694-59-7,[O-][n+]1ccccc1,"PYRIDINE, 1-OXIDE","Pyridine, 1-oxide",1-oxidopyridin-1-ium,32273,DTXSID3061007,[O-][n+]1ccccc1,InChI=1S/C5H5NO/c7-6-4-2-1-3-5-6/h1-5H,ILVXOBCQQYKLDS-UHFFFAOYSA-N,?,,65.5,105326
105330,695-34-1,695-34-1,Cc1cc(N)[n]cc1,"2-Pyridinamine, 4-methyl-",4-Methylpyridin-2-amine,4-methylpyridin-2-amine,32277,DTXSID1044720,Cc1cc(N)[n]cc1,"InChI=1S/C6H8N2/c1-5-2-3-8-6(7)4-5/h2-4H,1H3,(H2,7,8)",ORLGLBZRQYOWNA-UHFFFAOYSA-N,?,,100.0,105330
105334,696-30-0,696-30-0,CC(C)c1cc[n]cc1,"Pyridine, 4-(1-methylethyl)-",4-Isopropylpyridine,4-propan-2-ylpyridine,32281,DTXSID7061013,CC(C)c1cc[n]cc1,"InChI=1S/C8H11N/c1-7(2)8-3-5-9-6-4-8/h3-7H,1-2H3",FRGXNJWEDDQLFH-UHFFFAOYSA-N,?,,-54.9,105334
105338,697-11-0,697-11-0,FC1(F)C(F)=C(F)C1(F)F,"CYCLOBUTENE, HEXAFLUORO-","Cyclobutene, hexafluoro-","1,2,3,3,4,4-Hexafluorocyclobutene",32285,DTXSID2073229,FC1(F)C(F)=C(F)C1(F)F,"InChI=1S/C4F6/c5-1-2(6)4(9,10)3(1,7)8",QVHWOZCZUNPZPW-UHFFFAOYSA-N,?,,-60.0,105338
105342,698-27-1,698-27-1,Cc1ccc(C=O)c(O)c1,2-Hydroxy-4-methylbenzaldehyde,"Benzaldehyde, 2-hydroxy-4-methyl-",2-Hydroxy-4-methylbenzaldehyde,32289,DTXSID2074407,Cc1ccc(C=O)c(O)c1,"InChI=1S/C8H8O2/c1-6-2-3-7(5-9)8(10)4-6/h2-5,10H,1H3",JODRRPJMQDFCBJ-UHFFFAOYSA-N,?,,60.5,105342
105346,698-71-5,698-71-5,Cc1cc(CC)cc(O)c1,3-ETHYL-5-METHYLPHENOL,3-Ethyl-5-methylphenol,3-Ethyl-5-methylphenol,32293,DTXSID60220101,Cc1cc(CC)cc(O)c1,"InChI=1S/C9H12O/c1-3-8-4-7(2)5-9(10)6-8/h4-6,10H,3H2,1-2H3",XTCHLXABLZQNNN-UHFFFAOYSA-N,?,,51.6,105346
105350,700-17-4,700-17-4,Nc1c(F)c(F)cc(F)c1F,"2,3,5,6-TETRAFLUOROANILINE","2,3,5,6-Tetrafluoroaniline","2,3,5,6-TETRAFLUOROANILINE",32297,DTXSID30220259,Nc1c(F)c(F)cc(F)c1F,"InChI=1S/C6H3F4N/c7-2-1-3(8)5(10)6(11)4(2)9/h1H,11H2",SPSWJTZNOXMMMV-UHFFFAOYSA-N,?,,31.5,105350
105354,703-32-2,NOCAS_870759,Clc1ccc(Cl)c2ccc[n]c12,"5,8-Dichloroquinoline",,,32301,DTXSID90870759,Clc1ccc(Cl)c2ccc[n]c12,InChI=1S/C9H5Cl2N/c10-7-3-4-8(11)9-6(7)2-1-5-12-9/h1-5H,AGEBWUNAQGUAJD-UHFFFAOYSA-N,?,,97.5,105354
105358,704-01-8,704-01-8,CN(C)c1ccccc1N(C)C,"1,2-Benzenediamine, N,N,N',N'-tetramethyl-","1,2-Benzenediamine, N,N,N',N'-tetramethyl-","N,N,N',N'-Tetramethylbenzene-1,2-diamine",32305,DTXSID5061035,CN(C)c1ccccc1N(C)C,"InChI=1S/C10H16N2/c1-11(2)9-7-5-6-8-10(9)12(3)4/h5-8H,1-4H3",CJVYYDCBKKKIPD-UHFFFAOYSA-N,?,,8.9,105358
105362,708-06-5,708-06-5,Oc1ccc2ccccc2c1C=O,"1-Naphthalenecarboxaldehyde, 2-hydroxy-","1-Naphthalenecarboxaldehyde, 2-hydroxy-",2-hydroxynaphthalene-1-carbaldehyde,32309,DTXSID9061041,Oc1ccc2ccccc2c1C=O,"InChI=1S/C11H8O2/c12-7-10-9-4-2-1-3-8(9)5-6-11(10)13/h1-7,13H",NTCCNERMXRIPTR-UHFFFAOYSA-N,?,,83.0,105362
105366,709-63-7,709-63-7,CC(=O)c1ccc(cc1)C(F)(F)F,4-TRIFLUORMETHYL-ACETOPHENON,1-(4-(Trifluoromethyl)phenyl)ethan-1-one,1-[4-(trifluoromethyl)phenyl]ethanone,32313,DTXSID80221130,CC(=O)c1ccc(cc1)C(F)(F)F,"InChI=1S/C9H7F3O/c1-6(13)7-2-4-8(5-3-7)9(10,11)12/h2-5H,1H3",HHAISVSEJFEWBZ-UHFFFAOYSA-N,?,,31.0,105366
105370,712-48-1,712-48-1,Cl[As](c1ccccc1)c1ccccc1,DIPHENYLCHLOROARSINE,Diphenylchlorarsine,C12H10AsCl,32317,DTXSID30858733,Cl[As](c1ccccc1)c1ccccc1,InChI=1S/C12H10AsCl/c14-13(11-7-3-1-4-8-11)12-9-5-2-6-10-12/h1-10H,YHHKGKCOLGRKKB-UHFFFAOYSA-N,?,,44.0,105370
105374,713-36-0,27776-01-8,Cc1ccccc1Cc1ccccc1,"Benzene, 1-methyl-2-(phenylmethyl)-",Benzyltoluene,1-benzyl-2-methylbenzene,32321,DTXSID8041666,Cc1ccccc1Cc1ccccc1,"InChI=1S/C14H14/c1-12-7-5-6-10-14(12)11-13-8-3-2-4-9-13/h2-10H,11H2,1H3",PQTAUFTUHHRKSS-UHFFFAOYSA-N,?,,6.6,105374
105379,719-22-2,719-22-2,CC(C)(C)C1=CC(=O)C=C(C1=O)C(C)(C)C,"2,6-BIS(T-BUTYL)-2,5-CYCLOHEXADIENE-1,4-DIONE","2,6-Bis-(1,1-dimethylethyl)-2,5-cyclohexadiene-1,4-dione","2,6-di-tert-butylcyclohexa-2,5-diene-1,4-dione",32325,DTXSID7021493,CC(C)(C)C1=CC(=O)C=C(C1=O)C(C)(C)C,"InChI=1S/C14H20O2/c1-13(2,3)10-7-9(15)8-11(12(10)16)14(4,5)6/h7-8H,1-6H3",RDQSIADLBQFVMY-UHFFFAOYSA-N,?,,66.0,105379
105383,723-46-6,723-46-6,Cc1cc(NS(=O)(=O)c2ccc(N)cc2)[n]o1,SULFAMETHOXAZOLE,Sulfamethoxazole,"4-amino-N-(5-methyl-1,2-oxazol-3-yl)benzenesulfonamide",32329,DTXSID8026064,Cc1cc(NS(=O)(=O)c2ccc(N)cc2)[n]o1,"InChI=1S/C10H11N3O3S/c1-7-6-10(12-16-7)13-17(14,15)9-4-2-8(11)3-5-9/h2-6H,11H2,1H3,(H,12,13)",JLKIGFTWXXRPMT-UHFFFAOYSA-N,?,,167.0,105383
105387,727-99-1,727-99-1,O=C(c1ccccc1C(F)(F)F)c1ccccc1,2-(Trifluoromethyl)benzophenone,2-(Trifluoromethyl)benzophenone,phenyl-[2-(trifluoromethyl)phenyl]methanone,32333,DTXSID70223002,O=C(c1ccccc1C(F)(F)F)c1ccccc1,"InChI=1S/C14H9F3O/c15-14(16,17)12-9-5-4-8-11(12)13(18)10-6-2-1-3-7-10/h1-9H",JXIWJBWMQXDALU-UHFFFAOYSA-N,?,,61.0,105387
105391,729-99-7,729-99-7,Cc1oc(NS(=O)(=O)c2ccc(N)cc2)[n]c1C,Sulfamoxole,Sulfamoxole,"4-amino-N-(4,5-dimethyl-1,3-oxazol-2-yl)benzenesulfonamide",32337,DTXSID5023617,Cc1oc(NS(=O)(=O)c2ccc(N)cc2)[n]c1C,"InChI=1S/C11H13N3O3S/c1-7-8(2)17-11(13-7)14-18(15,16)10-5-3-9(12)4-6-10/h3-6H,12H2,1-2H3,(H,13,14)",CYFLXLSBHQBMFT-UHFFFAOYSA-N,?,,193.0,105391
105395,732-26-3,732-26-3,CC(C)(C)c1cc(c(O)c(c1)C(C)(C)C)C(C)(C)C,"2,4,6-TRI(TERT-BUTYL)PHENOL","2,4,6-Tris(tert-butyl)phenol","2,4,6-tri-tert-butylphenol",32341,DTXSID2021311,CC(C)(C)c1cc(c(O)c(c1)C(C)(C)C)C(C)(C)C,"InChI=1S/C18H30O/c1-16(2,3)12-10-13(17(4,5)6)15(19)14(11-12)18(7,8)9/h10-11,19H,1-9H3",PFEFOYRSMXVNEL-UHFFFAOYSA-N,?,,131.0,105395
105399,738-70-5,738-70-5,COc1c(cc(Cc2c[n]c(N)[n]c2N)cc1OC)OC,TRIMETHOPRIM,Trimethoprim,"5-(3,4,5-trimethoxybenzyl)pyrimidine-2,4-diamine",32345,DTXSID3023712,COc1c(cc(Cc2c[n]c(N)[n]c2N)cc1OC)OC,"InChI=1S/C14H18N4O3/c1-19-10-5-8(6-11(20-2)12(10)21-3)4-9-7-17-14(16)18-13(9)15/h5-7H,4H2,1-3H3,(H4,15,16,17,18)",IEDVJHCEMCRBQM-UHFFFAOYSA-N,?,,201.0,105399
105403,747-90-0,NOCAS_870761,CC(C)CCC[C@@H](C)[C@H]1CC[C@H]2[C@@H]3CC=C4C=CCC[C@]4(C)[C@H]3CC[C@@]21C,"CHOLESTA-3,5-DIENE",,,32349,DTXSID60870761,CC(C)CCCC(C)C1CCC2C3CC=C4C=CCCC4(C)C3CCC21C,"InChI=1S/C27H44/c1-19(2)9-8-10-20(3)23-14-15-24-22-13-12-21-11-6-7-17-26(21,4)25(22)16-18-27(23,24)5/h6,11-12,19-20,22-25H,7-10,13-18H2,1-5H3",RLHIRZFWJBOHHD-UHFFFAOYSA-N,?,,80.0,105403
105410,758-96-3,758-96-3,CCC(=O)N(C)C,"PROPANAMIDE, N,N-DIMETHYL-","Propanamide, N,N-dimethyl-","N,N-dimethylpropanamide",32353,DTXSID1061077,CCC(=O)N(C)C,"InChI=1S/C5H11NO/c1-4-5(7)6(2)3/h4H2,1-3H3",MBHINSULENHCMF-UHFFFAOYSA-N,?,,-45.0,105410
105414,760-23-6,760-23-6,C=CC(Cl)CCl,"3,4-DICHLORO-1-BUTENE","3,4-Dichloro-1-butene","3,4-dichlorobut-1-ene",32357,DTXSID8022113,C=CC(Cl)CCl,"InChI=1S/C4H6Cl2/c1-2-4(6)3-5/h2,4H,1,3H2",XVEASTGLHPVZNA-UHFFFAOYSA-N,?,,-61.0,105414
105418,760-78-1|6600-40-4,NOCAS_862403,CCCC(N)C(O)=O,"DL-Norvaline, NORVALINE",,,32361|34586,DTXSID00862403,CCCC(N)C(O)=O,"InChI=1S/C5H11NO2/c1-2-3-4(6)5(7)8/h4H,2-3,6H2,1H3,(H,7,8)",SNDPXSYFESPGGJ-UHFFFAOYSA-N,?,,305.0,105418
105422,762-62-9,762-62-9,CC(C)(C)CC=C,"1-PENTENE, 4,4-DIMETHYL-","1-Pentene, 4,4-dimethyl-","4,4-Dimethylpent-1-ene",32365,DTXSID6073235,CC(C)(C)CC=C,"InChI=1S/C7H14/c1-5-6-7(2,3)4/h5H,1,6H2,2-4H3",KLCNJIQZXOQYTE-UHFFFAOYSA-N,?,,-136.6,105422
105426,764-13-6,764-13-6,CC(C)=CC=C(C)C,"2,5-DIMETHYL-2,4-HEXADIENE","2,5-Dimethyl-2,4-hexadiene","2,5-dimethylhexa-2,4-diene",32369,DTXSID3022116,CC(C)=CC=C(C)C,"InChI=1S/C8H14/c1-7(2)5-6-8(3)4/h5-6H,1-4H3",DZPCYXCBXGQBRN-UHFFFAOYSA-N,?,,14.0,105426
105431,764-81-8,764-81-8,CCCCCCCOO,n-Heptyl hydroperoxide,"Hydroperoxide, heptyl",1-hydroperoxyheptane,32374,DTXSID80227233,CCCCCCCOO,"InChI=1S/C7H16O2/c1-2-3-4-5-6-7-9-8/h8H,2-7H2,1H3",XIOGAMSXYSPUSI-UHFFFAOYSA-N,?,,35.5,105431
105436,765-03-7,765-03-7,CCCCCCCCCCC#C,1-Dodecyne,1-Dodecyne,dodec-1-yne,32379,DTXSID4061094,CCCCCCCCCCC#C,"InChI=1S/C12H22/c1-3-5-7-9-11-12-10-8-6-4-2/h1H,4-12H2,2H3",ZVDBUOGYYYNMQI-UHFFFAOYSA-N,?,,-19.0,105436
105440,765-27-5,765-27-5,CCCCCCCCCCCCCCCCCCC#C,1-EICOSYNE,1-Eicosyne,icos-1-yne,32383,DTXSID70227303,CCCCCCCCCCCCCCCCCCC#C,"InChI=1S/C20H38/c1-3-5-7-9-11-13-15-17-19-20-18-16-14-12-10-8-6-4-2/h1H,4-20H2,2H3",BUSHLWVWPAEVMX-UHFFFAOYSA-N,?,,36.0,105440
105445,765-47-9,765-47-9,CC1CCCC=1C,"1,2-Dimethyl-cyclopentene","1,2-Dimethylcyclopentene","1,2-Dimethylcyclopentene",32387,DTXSID50227306,CC1CCCC=1C,"InChI=1S/C7H12/c1-6-4-3-5-7(6)2/h3-5H2,1-2H3",SZZWLAZADBEDQP-UHFFFAOYSA-N,?,,-90.4,105445
105449,766-39-2,766-39-2,CC1C(=O)OC(=O)C=1C,"2,5-Furandione, 3,4-dimethyl-","2,5-Furandione, 3,4-dimethyl-","3,4-dimethylfuran-2,5-dione",32391,DTXSID6061103,CC1C(=O)OC(=O)C=1C,InChI=1S/C6H6O3/c1-3-4(2)6(8)9-5(3)7/h1-2H3,MFGALGYVFGDXIX-UHFFFAOYSA-N,?,,96.0,105449
105453,766-93-8,766-93-8,O=CNC1CCCCC1,"FORMAMIDE, N-CYCLOHEXYL-",N-Cyclohexylformamide,N-Cyclohexylformamide,32395,DTXSID40227416,O=CNC1CCCCC1,"InChI=1S/C7H13NO/c9-6-8-7-4-2-1-3-5-7/h6-7H,1-5H2,(H,8,9)",SWGXDLRCJNEEGZ-UHFFFAOYSA-N,?,,39.5,105453
105457,767-54-4|933-48-2,116-02-9|933-48-2,CC1CC(O)CC(C)(C)C1,"Cyclohexanol, 3,3,5-trimethyl-, trans-, Cyclohexanol, 3,3,5-trimethyl-, cis-","3,3,5-Trimethylcyclohexanol","3,3,5-trimethylcyclohexanol",32399|32605,DTXSID9041815|DTXSID1047570,CC1CC(O)CC(C)(C)C1,"InChI=1S/C9H18O/c1-7-4-8(10)6-9(2,3)5-7/h7-8,10H,4-6H2,1-3H3",BRRVXFOKWJKTGG-UHFFFAOYSA-N,?,,46.55,105457
105462,768-56-9,768-56-9,C=CCCc1ccccc1,"BENZENE, 3-BUTENYL-",3-Butenylbenzene,but-3-enylbenzene,32403,DTXSID80227612,C=CCCc1ccccc1,"InChI=1S/C10H12/c1-2-3-7-10-8-5-4-6-9-10/h2,4-6,8-9H,1,3,7H2",PBGVMIDTGGTBFS-UHFFFAOYSA-N,?,,-70.0,105462
105466,769-25-5,769-25-5,Cc1cc(C)c(C=C)c(C)c1,"BENZENE, 2-ETHENYL-1,3,5-TRIMETHYL-","2,4,6-Trimethylstyrene","2-ethenyl-1,3,5-trimethylbenzene",32406,DTXSID20227691,Cc1cc(C)c(C=C)c(C)c1,"InChI=1S/C11H14/c1-5-11-9(3)6-8(2)7-10(11)4/h5-7H,1H2,2-4H3",PDELBHCVXBSVPJ-UHFFFAOYSA-N,?,,-37.0,105466
105470,771-51-7,771-51-7,N#CCc1c[nH]c2ccccc21,Indole-3-acetonitrile,1H-Indole-3-acetonitrile,2-(1H-indol-3-yl)acetonitrile,32410,DTXSID5061118,N#CCc1c[nH]c2ccccc21,"InChI=1S/C10H8N2/c11-6-5-8-7-12-10-4-2-1-3-9(8)10/h1-4,7,12H,5H2",DMCPFOBLJMLSNX-UHFFFAOYSA-N,?,,36.0,105470
105474,771-62-0,771-62-0,Fc1c(F)c(F)c(S)c(F)c1F,Pentafluorothiophenol,"Benzenethiol, pentafluoro-","2,3,4,5,6-Pentafluorobenzenethiol",32414,DTXSID10227887,Fc1c(F)c(F)c(S)c(F)c1F,InChI=1S/C6HF5S/c7-1-2(8)4(10)6(12)5(11)3(1)9/h12H,UVAMFBJPMUMURT-UHFFFAOYSA-N,?,,-24.0,105474
105478,772-01-0,772-01-0,C1CCOC(O1)c1ccccc1,"1,3-Dioxane, 2-phenyl-","1,3-Dioxane, 2-phenyl-","2-Phenyl-1,3-dioxane",32418,DTXSID9061122,C1CCOC(O1)c1ccccc1,"InChI=1S/C10H12O2/c1-2-5-9(6-3-1)10-11-7-4-8-12-10/h1-3,5-6,10H,4,7-8H2",LNEMDIUSUQPKIP-UHFFFAOYSA-N,?,,41.0,105478
105482,774-40-3,774-40-3,CCOC(=O)C(O)c1ccccc1,"MANDELIC ACID, ETHYL ESTER",Ethyl mandelate,ethyl hydroxy(phenyl)acetate,32422,DTXSID6057829,CCOC(=O)C(O)c1ccccc1,"InChI=1S/C10H12O3/c1-2-13-10(12)9(11)8-6-4-3-5-7-8/h3-7,9,11H,2H2,1H3",SAXHIDRUJXPDOD-UHFFFAOYSA-N,?,,35.0,105482
105486,777-11-7,777-11-7,Clc1cc(OCC#CI)c(Cl)cc1Cl,Haloprogin,Haloprogin,"3-iodoprop-2-yn-1-yl 2,4,5-trichlorophenyl ether",32426,DTXSID9046865,Clc1cc(OCC#CI)c(Cl)cc1Cl,"InChI=1S/C9H4Cl3IO/c10-6-4-8(12)9(5-7(6)11)14-3-1-2-13/h4-5H,3H2",CTETYYAZBPJBHE-UHFFFAOYSA-N,?,,113.5,105486
105490,778-82-5,778-82-5,CCOC(=O)Cc1c[nH]c2ccccc21,Indole-3-acetic acid ethyl ester,Indole-3-acetic acid ethyl ester,ethyl 2-(1H-indol-3-yl)acetate,32430,DTXSID80228422,CCOC(=O)Cc1c[nH]c2ccccc21,"InChI=1S/C12H13NO2/c1-2-15-12(14)7-9-8-13-11-6-4-3-5-10(9)11/h3-6,8,13H,2,7H2,1H3",HUDBDWIQSIGUDI-UHFFFAOYSA-N,?,,44.5,105490
105495,781-35-1,781-35-1,CC(=O)C(c1ccccc1)c1ccccc1,"2-Propanone, 1,1-diphenyl-","2-Propanone, 1,1-diphenyl-","1,1-di(phenyl)propan-2-one",32434,DTXSID8061137,CC(=O)C(c1ccccc1)c1ccccc1,"InChI=1S/C15H14O/c1-12(16)15(13-8-4-2-5-9-13)14-10-6-3-7-11-14/h2-11,15H,1H3",DBNWBEGCONIRGQ-UHFFFAOYSA-N,?,,46.0,105495
105499,790-69-2,790-69-2,Fc1ccc(cc1)NC(=S)Nc1cc(Cl)cc(Cl)c1,Loflucarban,Loflucarban,"1-(3,5-dichlorophenyl)-3-(4-fluorophenyl)thiourea",32438,DTXSID60229492,Fc1ccc(cc1)NC(=S)Nc1cc(Cl)cc(Cl)c1,"InChI=1S/C13H9Cl2FN2S/c14-8-5-9(15)7-12(6-8)18-13(19)17-11-3-1-10(16)2-4-11/h1-7H,(H2,17,18,19)",ZHNUMLOCJMCLIT-UHFFFAOYSA-N,?,,163.5,105499
105503,794-94-5,794-94-5,COc1ccc(cc1)C(=O)OC(=O)c1ccc(cc1)OC,p-Anisic anhydride,p-Anisic anhydride,(4-methoxybenzoyl) 4-methoxybenzoate,32442,DTXSID40229637,COc1ccc(cc1)C(=O)OC(=O)c1ccc(cc1)OC,"InChI=1S/C16H14O5/c1-19-13-7-3-11(4-8-13)15(17)21-16(18)12-5-9-14(20-2)10-6-12/h3-10H,1-2H3",YGMHIBLUWGDWKP-UHFFFAOYSA-N,?,,94.5,105503
105509,,808-71-9,I.CC1(C)S[C@@H]2[C@H](NC(=O)Cc3ccccc3)C(=O)N2[C@H]1C(=O)OCCN(CC)CC,Penethamate Hydriodide,,,32446,,CC1(C)SC2C(NC(=O)Cc3ccccc3)C(=O)N2C1C(=O)OCCN(CC)CC,"InChI=1S/C22H31N3O4S/c1-5-24(6-2)12-13-29-21(28)18-22(3,4)30-20-17(19(27)25(18)20)23-16(26)14-15-10-8-7-9-11-15/h7-11,17-18,20H,5-6,12-14H2,1-4H3,(H,23,26)",AFKRZUUZFWTBCC-UHFFFAOYSA-N,I,19585.0,178.5,105509
105513,812-03-3,NOCAS_870776,CC(Cl)C(Cl)(Cl)Cl,"Propane, 1,1,1,2-tetrachloro-",,,32450,DTXSID10870776,CC(Cl)C(Cl)(Cl)Cl,"InChI=1S/C3H4Cl4/c1-2(4)3(5,6)7/h2H,1H3",FEKGWIHDBVDVSM-UHFFFAOYSA-N,?,,-64.0,105513
105517,815-24-7,815-24-7,CC(C)(C)C(=O)C(C)(C)C,"3-PENTANONE, 2,2,4,4-TETRAMETHYL-",Di-tert-butyl ketone,"2,2,4,4-Tetramethylpentan-3-one",32454,DTXSID1061154,CC(C)(C)C(=O)C(C)(C)C,"InChI=1S/C9H18O/c1-8(2,3)7(10)9(4,5)6/h1-6H3",UIQGEWJEWJMQSL-UHFFFAOYSA-N,?,,-25.2,105517
105523,821-06-7,821-06-7,BrC/C=C/CBr,"2-Butene, 1,4-dibromo-, (E)-","(E)-1,4-Dibromo-2-butene","(2E)-1,4-dibromobut-2-ene",32458,DTXSID8024941,BrCC=CCBr,"InChI=1S/C4H6Br2/c5-3-1-2-4-6/h1-2H,3-4H2/b2-1+",RMXLHIUHKIVPAB-OWOJBTEDSA-N,?,,53.4,105523
105528,821-48-7,821-48-7,Cl.ClCCNCCCl,"Ethanamine, 2-chloro-N-(2-chloroethyl)-, hydroch",Bis(2-chloroethyl)amine hydrochloride,2-chloro-N-(2-chloroethyl)ethanamine hydrochloride (1:1),32462,DTXSID3052567,ClCCNCCCl,"InChI=1S/C4H9Cl2N/c5-1-3-7-4-2-6/h7H,1-4H2",TXFLGZOGNOOEFZ-UHFFFAOYSA-N,Cl,18179.0,213.0,105528
105534,822-23-1,822-23-1,CCCCCCCCCCCCCCCCCCOC(C)=O,"Acetic acid, octadecyl ester",Stearyl acetate,octadecyl acetate,32468,DTXSID4047759,CCCCCCCCCCCCCCCCCCOC(C)=O,"InChI=1S/C20H40O2/c1-3-4-5-6-7-8-9-10-11-12-13-14-15-16-17-18-19-22-20(2)21/h3-19H2,1-2H3",OIZXRZCQJDXPFO-UHFFFAOYSA-N,?,,34.5,105534
105539,822-84-4,822-84-4,[O-][N+](=O)c1c[s]cc1,3-NITROTHIOPHENE,"Thiophene, 3-nitro-",3-Nitrothiophene,32472,DTXSID10231621,[O-][N+](=O)c1c[s]cc1,InChI=1S/C4H3NO2S/c6-5(7)4-1-2-8-3-4/h1-3H,SIPCFXFCVTUAID-UHFFFAOYSA-N,?,,78.5,105539
105544,824-72-6,824-72-6,O=P(Cl)(Cl)c1ccccc1,"Phosphonic dichloride, phenyl-",Phenylphosphonic dichloride,phenylphosphonic dichloride,32476,DTXSID5044732,O=P(Cl)(Cl)c1ccccc1,"InChI=1S/C6H5Cl2OP/c7-10(8,9)6-4-2-1-3-5-6/h1-5H",IBDMRHDXAQZJAP-UHFFFAOYSA-N,?,,1.0,105544
105548,826-36-8,826-36-8,CC1(C)CC(=O)CC(C)(C)N1,"4-Piperidinone, 2,2,6,6-tetramethyl-","2,2,6,6-Tetramethyl-4-piperidone","2,2,6,6-tetramethylpiperidin-4-one",32480,DTXSID4041527,CC1(C)CC(=O)CC(C)(C)N1,"InChI=1S/C9H17NO/c1-8(2)5-7(11)6-9(3,4)10-8/h10H,5-6H2,1-4H3",JWUXJYZVKZKLTJ-UHFFFAOYSA-N,?,,36.0,105548
105552,827-15-6,827-15-6,Fc1c(F)c(F)c(I)c(F)c1F,Iodopentafluorobenzene,Pentafluoroiodobenzene,"1,2,3,4,5-pentafluoro-6-iodobenzene",32484,DTXSID10231969,Fc1c(F)c(F)c(I)c(F)c1F,InChI=1S/C6F5I/c7-1-2(8)4(10)6(12)5(11)3(1)9,OPYHNLNYCRZOGY-UHFFFAOYSA-N,?,,-29.0,105552
105556,827-94-1,827-94-1,Nc1c(Br)cc(cc1Br)[N+]([O-])=O,"2,6-Dibromo-4-nitroaniline","2,6-Dibromo-4-nitroaniline","2,6-dibromo-4-nitroaniline",32488,DTXSID7052573,Nc1c(Br)cc(cc1Br)[N+]([O-])=O,"InChI=1S/C6H4Br2N2O2/c7-4-1-3(10(11)12)2-5(8)6(4)9/h1-2H,9H2",YMZIFDLWYUSZCC-UHFFFAOYSA-N,?,,207.0,105556
105562,830-81-9,NOCAS_870785,CC(=O)Oc1cccc2ccccc21,1-ACETOXYNAPHTHALENE,,,32491,DTXSID00870785,CC(=O)Oc1cccc2ccccc21,"InChI=1S/C12H10O2/c1-9(13)14-12-8-4-6-10-5-2-3-7-11(10)12/h2-8H,1H3",VGKONPUVOVVNSU-UHFFFAOYSA-N,?,,44.5,105562
105566,831-91-4,831-91-4,C(Sc1ccccc1)c1ccccc1,BENZYL PHENYL SULFIDE,Benzyl phenyl sulphide,phenylsulfanylmethylbenzene,32495,DTXSID50232172,C(Sc1ccccc1)c1ccccc1,"InChI=1S/C13H12S/c1-3-7-12(8-4-1)11-14-13-9-5-2-6-10-13/h1-10H,11H2",LKMCJXXOBRCATQ-UHFFFAOYSA-N,?,,43.5,105566
105570,833-50-1,833-50-1,c1ccccc1-c1[n]c2ccccc2o1,"BENZOXAZOLE, 2-PHENYL-","Benzoxazole, 2-phenyl-","2-phenyl-1,3-benzoxazole",32499,DTXSID2061199,c1ccccc1-c1[n]c2ccccc2o1,InChI=1S/C13H9NO/c1-2-6-10(7-3-1)13-14-11-8-4-5-9-12(11)15-13/h1-9H,FIISKTXZUZBTRC-UHFFFAOYSA-N,?,,103.0,105570
105574,836-30-6,836-30-6,[O-][N+](=O)c1ccc(cc1)Nc1ccccc1,4-NITRO-N-PHENYLBENZENAMINE,4-Nitro-N-phenylaniline,4-nitro-N-phenylaniline,32503,DTXSID8027323,[O-][N+](=O)c1ccc(cc1)Nc1ccccc1,"InChI=1S/C12H10N2O2/c15-14(16)12-8-6-11(7-9-12)13-10-4-2-1-3-5-10/h1-9,13H",XXYMSQQCBUKFHE-UHFFFAOYSA-N,?,,135.3,105574
105578,838-95-9,NOCAS_871810,CN(C)c1ccc(cc1)C=Cc1ccccc1,"BENZENAMINE, N,N-DIMETHYL-4-(2-PHENYLETHENYL)-,",,,32507,DTXSID20871810,CN(C)c1ccc(cc1)C=Cc1ccccc1,"InChI=1S/C16H17N/c1-17(2)16-12-10-15(11-13-16)9-8-14-6-4-3-5-7-14/h3-13H,1-2H3/b9-8+",XGHHHPDRXLIMPM-CMDGGOBGSA-N,?,,150.0,105578
105582,846-48-0,27833-18-7,C[C@]12CC[C@H]3[C@@H](CCC4=CC(=O)C=C[C@@]43C)[C@@H]1CC[C@H]2O,Boldenone,Epiboldenone,C19H26O2,32511,DTXSID80474528,CC12CCC3C(CCC4=CC(=O)C=CC43C)C1CCC2O,"InChI=1S/C19H26O2/c1-18-9-7-13(20)11-12(18)3-4-14-15-5-6-17(21)19(15,2)10-8-16(14)18/h7,9,11,14-17,21H,3-6,8,10H2,1-2H3",RSIHSRDYCUFFLA-UHFFFAOYSA-N,?,,165.0,105582
105587,848-75-9,NOCAS_862442,CN1C(=O)C(O)N=C(c2cc(Cl)ccc12)c1ccccc1Cl,Lormetazepam,,,32515,DTXSID40862442,CN1C(=O)C(O)N=C(c2cc(Cl)ccc12)c1ccccc1Cl,"InChI=1S/C16H12Cl2N2O2/c1-20-13-7-6-9(17)8-11(13)14(19-15(21)16(20)22)10-4-2-3-5-12(10)18/h2-8,15,21H,1H3",FJIKWRGCXUCUIG-UHFFFAOYSA-N,?,,206.0,105587
105592,868-54-2,868-54-2,NC(CC#N)=C(C#N)C#N,"1-PROPENE-1,1,3-TRICARBONITRILE, 2-AMINO-","2-Amino-1,1,3-tricyanopropene","2-aminoprop-1-ene-1,1,3-tricarbonitrile",32519,DTXSID80235813,NC(CC#N)=C(C#N)C#N,"InChI=1S/C6H4N4/c7-2-1-6(10)5(3-8)4-9/h1,10H2",BNHGNFYPZNDLAF-UHFFFAOYSA-N,?,,171.5,105592
105596,869-29-4,869-29-4,CC(=O)OC(C=C)OC(C)=O,ALLYLIDENEDIACETATE,"2-Propene-1,1-diol diacetate","prop-1-ene-3,3-diyl diacetate",32523,DTXSID8041450,CC(=O)OC(C=C)OC(C)=O,"InChI=1S/C7H10O4/c1-4-7(10-5(2)8)11-6(3)9/h4,7H,1H2,2-3H3",TXECTBGVEUDNSL-UHFFFAOYSA-N,?,,-37.6,105596
105600,872-10-6,872-10-6,CCCCCSCCCCC,"PENTANE, 1,1'-THIOBIS-",Pentyl sulfide,dipentyl sulfide,32527,DTXSID8042266,CCCCCSCCCCC,"InChI=1S/C10H22S/c1-3-5-7-9-11-10-8-6-4-2/h3-10H2,1-2H3",JOZDADPMWLVEJK-UHFFFAOYSA-N,?,,-51.3,105600