ChemID,source_casrn,CAS,SMILES,NAME,preferred_name,iupac,MPID,dsstox_substance_id,Canonical_QSARr,InChI_Code_QSARr,InChI Key_QSARr,Salt_Solvent,BP,ID
101354,123-73-9|4170-30-3,123-73-9|4170-30-3,C/C=C/C=O,"TRANS-CROTONALDEHYDE, CROTONALDEHYDE",(E)-Crotonaldehyde,(2E)-but-2-enal,20417|23590,DTXSID6020351|DTXSID8024864,CC=CC=O,"InChI=1S/C4H6O/c1-2-3-4-5/h2-4H,1H3/b3-2+",MLUCVPSAIODCQM-NSCUHMNNSA-N,?,103.1,101354
101355,123-75-1,123-75-1,C1CCCN1,PYRROLIDINE,Pyrrolidine,PYRROLIDINE,20418,DTXSID3059559,C1CCCN1,"InChI=1S/C4H9N/c1-2-4-5-3-1/h5H,1-4H2",RWRDLPDLKQPQOW-UHFFFAOYSA-N,?,86.5,101355
101357,123-80-8,123-80-8,CCC(=O)OCCOC(=O)CC,"1,2-ETHANEDIOL, DIPROPANOATE",,,20420,DTXSID60879239,CCC(=O)OCCOC(=O)CC,"InChI=1S/C8H14O4/c1-3-7(9)11-5-6-12-8(10)4-2/h3-6H2,1-2H3",UMNVUZRZKPVECS-UHFFFAOYSA-N,?,211.0,101357
101358,123-82-0,123-82-0,CCCCCC(C)N,2-Heptanamine,2-Aminoheptane,heptan-2-amine,20421,DTXSID6048468,CCCCCC(C)N,"InChI=1S/C7H17N/c1-3-4-5-6-7(2)8/h7H,3-6,8H2,1-2H3",VSRBKQFNFZQRBM-UHFFFAOYSA-N,?,142.0,101358
101359,123-83-1,123-83-1,CCNCCN(C)C,"1,2-Ethanediamine, N'-ethyl-N,N-dimethyl-","1,2-Ethanediamine, N'-ethyl-N,N-dimethyl-","N'-ethyl-N,N-dimethylethane-1,2-diamine",20422,DTXSID2059560,CCNCCN(C)C,"InChI=1S/C6H16N2/c1-4-7-5-6-8(2)3/h7H,4-6H2,1-3H3",WLNSKTSWPYTNLY-UHFFFAOYSA-N,?,134.5,101359
101361,123-90-0,123-90-0,C1CSCCN1,THIOMORPHOLINE,Thiamorpholine,thiomorpholine,20424,DTXSID80153826,C1CSCCN1,"InChI=1S/C4H9NS/c1-3-6-4-2-5-1/h5H,1-4H2",BRNULMACUQOKMR-UHFFFAOYSA-N,?,175.0,101361
101362,123-91-1,123-91-1,C1COCCO1,"1,4-DIOXANE","1,4-Dioxane","1,4-dioxane",20425,DTXSID4020533,C1COCCO1,InChI=1S/C4H8O2/c1-2-6-4-3-5-1/h1-4H2,RYHBNJHYFVUHQT-UHFFFAOYSA-N,?,101.5,101362
101363,123-92-2,123-92-2,CC(C)CCOC(C)=O,ISOAMYL ACETATE,3-Methylbutyl acetate,3-methylbutyl acetate,20426,DTXSID9025453,CC(C)CCOC(C)=O,"InChI=1S/C7H14O2/c1-6(2)4-5-9-7(3)8/h6H,4-5H2,1-3H3",MLFHJEHSLIIPHL-UHFFFAOYSA-N,?,142.5,101363
101365,123-96-6|4128-31-8,123-96-6,CCCCCCC(C)O,"2-OCTANOL, dl-2-Octanol",2-Octanol,octan-2-ol,20428|23582,DTXSID0027014,CCCCCCC(C)O,"InChI=1S/C8H18O/c1-3-4-5-6-7-8(2)9/h8-9H,3-7H2,1-2H3",SJWFXCIHNDVPSH-UHFFFAOYSA-N,?,179.25,101365
101366,124-02-7,124-02-7,C=CCNCC=C,DIALLYLAMINE,Diallylamine,N-(prop-2-en-1-yl)prop-2-en-1-amine,20429,DTXSID1024918,C=CCNCC=C,"InChI=1S/C6H11N/c1-3-5-7-6-4-2/h3-4,7H,1-2,5-6H2",DYUWTXWIYMHBQS-UHFFFAOYSA-N,?,111.0,101366
101367,124-04-9,124-04-9,OC(=O)CCCCC(O)=O,HEXANEDIOIC ACID,Hexanedioic acid,hexanedioic acid,20430,DTXSID7021605,OC(=O)CCCCC(O)=O,"InChI=1S/C6H10O4/c7-5(8)3-1-2-4-6(9)10/h1-4H2,(H,7,8)(H,9,10)",WNLRTRBMVRJNCN-UHFFFAOYSA-N,?,337.5,101367
101369,124-06-1,124-06-1,CCCCCCCCCCCCCC(=O)OCC,ETHYLMYRISTATE,Ethyl tetradecanoate,ethyl tetradecanoate,20432,DTXSID6047654,CCCCCCCCCCCCCC(=O)OCC,"InChI=1S/C16H32O2/c1-3-5-6-7-8-9-10-11-12-13-14-15-16(17)18-4-2/h3-15H2,1-2H3",MMKRHZKQPFCLLS-UHFFFAOYSA-N,?,295.0,101369
101370,124-07-2,124-07-2,CCCCCCCC(O)=O,OCTANOIC ACID,Octanoic acid,octanoic acid,20433,DTXSID3021645,CCCCCCCC(O)=O,"InChI=1S/C8H16O2/c1-2-3-4-5-6-7-8(9)10/h2-7H2,1H3,(H,9,10)",WWZKQHOCKIZLMA-UHFFFAOYSA-N,?,239.0,101370
101371,124-09-4,124-09-4,NCCCCCCN,HEXAMETHYLENE DIAMINE,"1,6-Hexanediamine","hexane-1,6-diamine",20434,DTXSID5024922,NCCCCCCN,InChI=1S/C6H16N2/c7-5-3-1-2-4-6-8/h1-8H2,NAQMVNRVTILPCV-UHFFFAOYSA-N,?,205.0,101371
101373,124-11-8,124-11-8,CCCCCCCC=C,ISONONENE,1-Nonene,non-1-ene,20436,DTXSID2059562,CCCCCCCC=C,"InChI=1S/C9H18/c1-3-5-7-9-8-6-4-2/h3H,1,4-9H2,2H3",JRZJOMJEPLMPRA-UHFFFAOYSA-N,?,146.9,101373
101374,124-12-9,124-12-9,CCCCCCCC#N,OCTANONITRILE,Octanenitrile,octanenitrile,20437,DTXSID1047655,CCCCCCCC#N,"InChI=1S/C8H15N/c1-2-3-4-5-6-7-8-9/h2-7H2,1H3",YSIMAPNUZAVQER-UHFFFAOYSA-N,?,205.2,101374
101375,124-13-0,124-13-0,CCCCCCCC=O,OCTANAL,Octanal,octanal,20438,DTXSID3021643,CCCCCCCC=O,"InChI=1S/C8H16O/c1-2-3-4-5-6-7-8-9/h8H,2-7H2,1H3",NUJGJRNETVAIRJ-UHFFFAOYSA-N,?,171.0,101375
101377,124-17-4,124-17-4,CCCCOCCOCCOC(C)=O,DIETHYLENE GLYCOL MONOBUTYL ETHER ACETATE,2-(2-Butoxyethoxy)ethyl acetate,2-(2-butoxyethoxy)ethyl acetate,20440,DTXSID9027021,CCCCOCCOCCOC(C)=O,"InChI=1S/C10H20O4/c1-3-4-5-12-6-7-13-8-9-14-10(2)11/h3-9H2,1-2H3",VXQBJTKSVGFQOL-UHFFFAOYSA-N,?,245.0,101377
101378,124-18-5,124-18-5,CCCCCCCCCC,N-DECANE,Decane,decane,20441,DTXSID6024913,CCCCCCCCCC,"InChI=1S/C10H22/c1-3-5-7-9-10-8-6-4-2/h3-10H2,1-2H3",DIOQZVSQGTUSAI-UHFFFAOYSA-N,?,174.1,101378
101379,124-19-6,124-19-6,CCCCCCCCC=O,NONANAL,Nonanal,nonanal,20442,DTXSID9021639,CCCCCCCCC=O,"InChI=1S/C9H18O/c1-2-3-4-5-6-7-8-9-10/h9H,2-8H2,1H3",GYHFUZHODSMOHU-UHFFFAOYSA-N,?,191.0,101379
101381,124-25-4,124-25-4,CCCCCCCCCCCCCC=O,Tetradecanal,Tetradecanal,tetradecanal,20444,DTXSID1021665,CCCCCCCCCCCCCC=O,"InChI=1S/C14H28O/c1-2-3-4-5-6-7-8-9-10-11-12-13-14-15/h14H,2-13H2,1H3",UHUFTBALEZWWIH-UHFFFAOYSA-N,?,260.0,101381
101382,124-30-1,124-30-1,CCCCCCCCCCCCCCCCCCN,OCTADECYLAMINE,1-Octadecanamine,octadecan-1-amine,20445,DTXSID1025801,CCCCCCCCCCCCCCCCCCN,"InChI=1S/C18H39N/c1-2-3-4-5-6-7-8-9-10-11-12-13-14-15-16-17-18-19/h2-19H2,1H3",REYJJPSVUYRZGE-UHFFFAOYSA-N,?,346.8,101382
101383,124-38-9,124-38-9,O=C=O,CARBON DIOXIDE,Carbon dioxide,methanedione,20446,DTXSID4027028,O=C=O,InChI=1S/CO2/c2-1-3,CURLTUGMZLYLDI-UHFFFAOYSA-N,?,-78.48,101383
101385,124-48-1,124-48-1,ClC(Br)Br,DIBROMOCHLOROMETHANE,Chlorodibromomethane,dibromo(chloro)methane,20448,DTXSID1020300,ClC(Br)Br,InChI=1S/CHBr2Cl/c2-1(3)4/h1H,GATVIKZLVQHOMN-UHFFFAOYSA-N,?,120.0,101385
101386,124-63-0,124-63-0,CS(=O)(=O)Cl,METHYLSULFONYL CHLORIDE,Methanesulfonyl chloride,methanesulfonyl chloride,20449,DTXSID1021615,CS(=O)(=O)Cl,"InChI=1S/CH3ClO2S/c1-5(2,3)4/h1H3",QARBMVPHQWIHKH-UHFFFAOYSA-N,?,162.0,101386
101387,124-68-5,124-68-5,CC(C)(N)CO,2-AMINO-2-METHYL-1-PROPANOL,2-Amino-2-methylpropan-1-ol,2-amino-2-methylpropan-1-ol,20450,DTXSID8027032,CC(C)(N)CO,"InChI=1S/C4H11NO/c1-4(2,5)3-6/h6H,3,5H2,1-2H3",CBTVGIZVANVGBH-UHFFFAOYSA-N,?,165.5,101387
101389,124-72-1,124-72-1,FC(Br)C(F)(F)F,"2-Bromo-1,1,1,2-tetrafluoroethane",,,20452,DTXSID10861765,FC(Br)C(F)(F)F,"InChI=1S/C2HBrF4/c3-1(4)2(5,6)7/h1H",RZXZIZDRFQFCTA-UHFFFAOYSA-N,?,8.6,101389
101390,124-73-2,124-73-2,FC(F)(Br)C(F)(F)Br,"1,2-DIBROMOTETRAFLUOROETHANE","1,2-Dibromo-1,1,2,2-tetrafluoroethane","1,2-dibromo-1,1,2,2-tetrafluoroethane",20453,DTXSID0041226,FC(F)(Br)C(F)(F)Br,"InChI=1S/C2Br2F4/c3-1(5,6)2(4,7)8",KVBKAPANDHPRDG-UHFFFAOYSA-N,?,47.3,101390
101391,126-15-8,126-15-8,O=CC12CC=CCC1C1CC=CCC1O2,R-11,"2,3:4,5-Bis(2-butylene)tetrahydro-2-furaldehyde","1,5a,6,9,9a,9b-hexahydrodibenzo[b,d]furan-4a(4H)-carbaldehyde",20454,DTXSID3041320,O=CC12CC=CCC1C1CC=CCC1O2,"InChI=1S/C13H16O2/c14-9-13-8-4-3-6-11(13)10-5-1-2-7-12(10)15-13/h1-4,9-12H,5-8H2",XNYGOEGATLFFOX-UHFFFAOYSA-N,?,307.0,101391
101393,126-33-0,126-33-0,O=S1(=O)CCCC1,"TETRAHYDROTHIOPHENE-1,1-DIOXIDE",Sulfolane,"tetrahydrothiophene 1,1-dioxide",20456,DTXSID3027037,O=S1(=O)CCCC1,InChI=1S/C4H8O2S/c5-7(6)3-1-2-4-7/h1-4H2,HXJUTPCZVOIRIF-UHFFFAOYSA-N,?,285.0,101393
101394,126-39-6,126-39-6,CCC1(C)OCCO1,"1,3-Dioxolane, 2-ethyl-2-methyl-","2-Ethyl-2-methyl-1,3-dioxolane","2-Ethyl-2-methyl-1,3-dioxolane",20457,DTXSID7059565,CCC1(C)OCCO1,"InChI=1S/C6H12O2/c1-3-6(2)7-4-5-8-6/h3-5H2,1-2H3",UPZFLZYXYGBAPL-UHFFFAOYSA-N,?,116.5,101394
101395,126-71-6,126-71-6,CC(C)COP(=O)(OCC(C)C)OCC(C)C,"Phosphoric acid, tris(2-methylpropyl) ester",Triisobutyl phosphate,tris(2-methylpropyl) phosphate,20458,DTXSID8040698,CC(C)COP(=O)(OCC(C)C)OCC(C)C,"InChI=1S/C12H27O4P/c1-10(2)7-14-17(13,15-8-11(3)4)16-9-12(5)6/h10-12H,7-9H2,1-6H3",HRKAMJBPFPHCSD-UHFFFAOYSA-N,?,264.0,101395
101397,126-84-1,126-84-1,CC(C)(OCC)OCC,"2,2-DIETHOXYPROPANE","Propane, 2,2-diethoxy-","2,2-DIETHOXYPROPANE",20460,DTXSID2059568,CC(C)(OCC)OCC,"InChI=1S/C7H16O2/c1-5-8-7(3,4)9-6-2/h5-6H2,1-4H3",FGQLGYBGTRHODR-UHFFFAOYSA-N,?,114.0,101397
101398,126-98-7,126-98-7,CC(=C)C#N,METHACRYLONITRILE,Methacrylonitrile,2-methylprop-2-enenitrile,20461,DTXSID1024176,CC(=C)C#N,"InChI=1S/C4H5N/c1-4(2)3-5/h1H2,2H3",GYCMBHHDWRMZGG-UHFFFAOYSA-N,?,90.3,101398
101399,126-99-8,126-99-8,C=CC(=C)Cl,CHLOROPRENE,Chloroprene,"2-chlorobuta-1,3-diene",20462,DTXSID5020316,C=CC(=C)Cl,"InChI=1S/C4H5Cl/c1-3-4(2)5/h3H,1-2H2",YACLQRRMGMJLJV-UHFFFAOYSA-N,?,59.4,101399
101401,127-06-0,127-06-0,CC(C)=NO,"2-PROPANONE, OXIME",Acetoxime,N-hydroxypropan-2-imine,20464,DTXSID6020010,CC(C)N=O,"InChI=1S/C3H7NO/c1-3(2)4-5/h3H,1-2H3",NDEOFSCLJFPNSR-UHFFFAOYSA-N,?,136.0,101401
101402,127-18-4,127-18-4,ClC(Cl)=C(Cl)Cl,TETRACHLOROETHENE,Tetrachloroethylene,tetrachloroethene,20465,DTXSID2021319,ClC(Cl)=C(Cl)Cl,InChI=1S/C2Cl4/c3-1(4)2(5)6,CYTYCFOTNPOANT-UHFFFAOYSA-N,?,121.3,101402
101403,127-19-5,127-19-5,CC(=O)N(C)C,"N,N'-DIMETHYLACETAMIDE","N,N-Dimethylacetamide","N,N-dimethylacetamide",20466,DTXSID5020499,CC(=O)N(C)C,InChI=1S/C4H9NO/c1-4(6)5(2)3/h1-3H3,FXHOOIRPVKKKFG-UHFFFAOYSA-N,?,165.0,101403
101405,127-25-3,127-25-3,CC(C)C1CC[C@H]2C(C=1)=CC[C@H]1[C@@](C)(CCC[C@]21C)C(=O)OC,Methyl Abietate,Methyl abietate,"methyl abieta-7,13-dien-18-oate",20468,DTXSID9048190,CC(C)C1CCC2C(C=1)=CCC1C(C)(CCCC21C)C(=O)OC,"InChI=1S/C21H32O2/c1-14(2)15-7-9-17-16(13-15)8-10-18-20(17,3)11-6-12-21(18,4)19(22)23-5/h8,13-14,17-18H,6-7,9-12H2,1-5H3",OVXRPXGVKBHGQO-UHFFFAOYSA-N,?,362.5,101405
101406,127-63-9,127-63-9,O=S(=O)(c1ccccc1)c1ccccc1,DIPHENYL SULFONE,Diphenylsulfone,diphenyl sulfone,20469,DTXSID6041892,O=S(=O)(c1ccccc1)c1ccccc1,"InChI=1S/C12H10O2S/c13-15(14,11-7-3-1-4-8-11)12-9-5-2-6-10-12/h1-10H",KZTYYGOKRVBIMI-UHFFFAOYSA-N,?,279.0,101406
101407,127-66-2,127-66-2,CC(O)(C#C)c1ccccc1,"Benzenemethanol, .alpha.-ethynyl-.alpha.-methyl-",2-Phenyl-3-butyn-2-ol,2-phenylbut-3-yn-2-ol,20470,DTXSID7021990,CC(O)(C#C)c1ccccc1,"InChI=1S/C10H10O/c1-3-10(2,11)9-7-5-4-6-8-9/h1,4-8,11H,2H3",KSLSOBUAIFEGLT-UHFFFAOYSA-N,?,217.5,101407
101409,128-09-6,128-09-6,O=C1CCC(=O)N1Cl,"1-CHLORO-2,5-PYRROLIDINEDIONE",N-Chlorosuccinimide,"1-chloropyrrolidine-2,5-dione",20472,DTXSID2042199,O=C1CCC(=O)N1Cl,InChI=1S/C4H4ClNO2/c5-6-3(7)1-2-4(6)8/h1-2H2,JRNVZBWKYDBUCA-UHFFFAOYSA-N,?,216.5,101409
101410,128-37-0,128-37-0,Cc1cc(c(O)c(c1)C(C)(C)C)C(C)(C)C,"2,6-DI-T-BUTYL-4-METHYLPHENOL (BHT)",Butylated hydroxytoluene,"2,6-di-tert-butyl-4-methylphenol",20473,DTXSID2020216,Cc1cc(c(O)c(c1)C(C)(C)C)C(C)(C)C,"InChI=1S/C15H24O/c1-10-8-11(14(2,3)4)13(16)12(9-10)15(5,6)7/h8-9,16H,1-7H3",NLZUEZXRPGMBCV-UHFFFAOYSA-N,?,265.0,101410
101411,128-39-2,128-39-2,CC(C)(C)c1cccc(c1O)C(C)(C)C,"2,6-DI-T-BUTYLPHENOL","2,6-Di-tert-butylphenol","2,6-di-tert-butylphenol",20474,DTXSID6027052,CC(C)(C)c1cccc(c1O)C(C)(C)C,"InChI=1S/C14H22O/c1-13(2,3)10-8-7-9-11(12(10)15)14(4,5)6/h7-9,15H,1-6H3",DKCPKDPYUFEZCP-UHFFFAOYSA-N,?,253.0,101411
101414,131-11-3,131-11-3,COC(=O)c1ccccc1C(=O)OC,DIMETHYL PHTHALATE,Dimethyl phthalate,"dimethyl benzene-1,2-dicarboxylate",20476,DTXSID3022455,COC(=O)c1ccccc1C(=O)OC,"InChI=1S/C10H10O4/c1-13-9(11)7-5-3-4-6-8(7)10(12)14-2/h3-6H,1-2H3",NIQCNGHVCWTJSM-UHFFFAOYSA-N,?,283.7,101414
101415,131-16-8,131-16-8,CCCOC(=O)c1ccccc1C(=O)OCCC,DIPROPYL PHTHALATE,Dipropyl phthalate,"dipropyl benzene-1,2-dicarboxylate",20477,DTXSID5031133,CCCOC(=O)c1ccccc1C(=O)OCCC,"InChI=1S/C14H18O4/c1-3-9-17-13(15)11-7-5-6-8-12(11)14(16)18-10-4-2/h5-8H,3-4,9-10H2,1-2H3",MQHNKCZKNAJROC-UHFFFAOYSA-N,?,317.5,101415
101416,131-18-0,131-18-0,CCCCCOC(=O)c1ccccc1C(=O)OCCCCC,DI-N-AMYL PHTHALATE,Dipentyl phthalate,"dipentyl benzene-1,2-dicarboxylate",20478,DTXSID5031131,CCCCCOC(=O)c1ccccc1C(=O)OCCCCC,"InChI=1S/C18H26O4/c1-3-5-9-13-21-17(19)15-11-7-8-12-16(15)18(20)22-14-10-6-4-2/h7-8,11-12H,3-6,9-10,13-14H2,1-2H3",IPKKHRVROFYTEK-UHFFFAOYSA-N,?,342.0,101416
101418,132-64-9,132-64-9,c1cccc2oc3ccccc3c21,DIBENZOFURAN,Dibenzofuran,"dibenzo[b,d]furan",20480,DTXSID2021993,c1cccc2oc3ccccc3c21,InChI=1S/C12H8O/c1-3-7-11-9(5-1)10-6-2-4-8-12(10)13-11/h1-8H,TXCDCPKCNAJMEE-UHFFFAOYSA-N,?,287.0,101418
101419,132-65-0,132-65-0,c1cccc2[s]c3ccccc3c21,DIBENZOTHIOPHENE,Dibenzothiophene,"dibenzo[b,d]thiophene",20481,DTXSID0047741,c1cccc2[s]c3ccccc3c21,InChI=1S/C12H8S/c1-3-7-11-9(5-1)10-6-2-4-8-12(10)13-11/h1-8H,IYYZUPMFVPLQIF-UHFFFAOYSA-N,?,332.5,101419
101420,133-08-4,133-08-4,CCCCC(C(=O)OCC)C(=O)OCC,"PROPANEDIOIC ACID, BUTYL-, DIETHYL ESTER",Diethyl butylmalonate,diethyl 2-butylpropanedioate,20482,DTXSID90157895,CCCCC(C(=O)OCC)C(=O)OCC,"InChI=1S/C11H20O4/c1-4-7-8-9(10(12)14-5-2)11(13)15-6-3/h9H,4-8H2,1-3H3",RPNFNBGRHCUORR-UHFFFAOYSA-N,?,237.5,101420
101422,133-90-4,133-90-4,Nc1cc(Cl)cc(C(O)=O)c1Cl,"3-AMINO-2,5-DICHLOROBENZOIC ACID",Chloramben,"3-amino-2,5-dichlorobenzoic acid",20484,DTXSID2020262,Nc1cc(Cl)cc(C(O)=O)c1Cl,"InChI=1S/C7H5Cl2NO2/c8-3-1-4(7(11)12)6(9)5(10)2-3/h1-2H,10H2,(H,11,12)",HSSBORCLYSCBJR-UHFFFAOYSA-N,?,312.0,101422
101423,134-20-3,134-20-3,COC(=O)c1ccccc1N,METHYL ANTHRANILATE,Methyl 2-aminobenzoate,methyl 2-aminobenzoate,20485,DTXSID6025567,COC(=O)c1ccccc1N,"InChI=1S/C8H9NO2/c1-11-8(10)6-4-2-3-5-7(6)9/h2-5H,9H2,1H3",VAMXMNNIEUEQDV-UHFFFAOYSA-N,?,256.0,101423
101424,134-32-7,134-32-7,Nc1cccc2ccccc21,1-NAPHTHYLAMINE,1-Naphthylamine,naphthalen-1-amine,20486,DTXSID7020920,Nc1cccc2ccccc21,"InChI=1S/C10H9N/c11-10-7-3-5-8-4-1-2-6-9(8)10/h1-7H,11H2",RUFPHBVGCFYCNW-UHFFFAOYSA-N,?,300.8,101424
101426,134-81-6,134-81-6,O=C(c1ccccc1)C(=O)c1ccccc1,BENZIL,"1,2-Diphenylethanedione","1,2-diphenylethane-1,2-dione",20488,DTXSID3044380,O=C(c1ccccc1)C(=O)c1ccccc1,InChI=1S/C14H10O2/c15-13(11-7-3-1-4-8-11)14(16)12-9-5-2-6-10-12/h1-10H,WURBFLDFSFBTLW-UHFFFAOYSA-N,?,347.0,101426
101427,134-85-0,134-85-0,O=C(c1ccccc1)c1ccc(Cl)cc1,"Methanone, (4-chlorophenyl)phenyl-",4-Chlorobenzophenone,(4-chlorophenyl)(phenyl)methanone,20489,DTXSID2051687,O=C(c1ccccc1)c1ccc(Cl)cc1,InChI=1S/C13H9ClO/c14-12-8-6-11(7-9-12)13(15)10-4-2-1-3-5-10/h1-9H,UGVRJVHOJNYEHR-UHFFFAOYSA-N,?,332.0,101427
101428,135-00-2,135-00-2,O=C(c1ccc[s]1)c1ccccc1,"METHANONE, PHENYL-2-THIENYL-",Phenyl 2-thienyl ketone,phenyl-thiophen-2-ylmethanone,20490,DTXSID30159191,O=C(c1ccc[s]1)c1ccccc1,InChI=1S/C11H8OS/c12-11(10-7-4-8-13-10)9-5-2-1-3-6-9/h1-8H,DWYFUJJWTRPARQ-UHFFFAOYSA-N,?,300.0,101428
101430,135-02-4,135-02-4,COc1ccccc1C=O,"BENZALDEHYDE, 2-METHOXY-",2-Methoxybenzaldehyde,2-methoxybenzaldehyde,20492,DTXSID1051690,COc1ccccc1C=O,"InChI=1S/C8H8O2/c1-10-8-5-3-2-4-7(8)6-9/h2-6H,1H3",PKZJLOCLABXVMC-UHFFFAOYSA-N,?,243.5,101430
101431,135-19-3,135-19-3,Oc1cc2ccccc2cc1,2-NAPHTHOL,2-Naphthalenol,naphthalen-2-ol,20493,DTXSID5027061,Oc1cc2ccccc2cc1,"InChI=1S/C10H8O/c11-10-6-5-8-3-1-2-4-9(8)7-10/h1-7,11H",JWAZRIHNYRIHIV-UHFFFAOYSA-N,?,285.0,101431
101432,135-88-6,135-88-6,c1c(ccc2ccccc21)Nc1ccccc1,N-PHENYL-2-NAPHTHYLAMINE,N-Phenyl-2-naphthylamine,N-phenylnaphthalen-2-amine,20494,DTXSID4021131,c1c(ccc2ccccc21)Nc1ccccc1,"InChI=1S/C16H13N/c1-2-8-15(9-3-1)17-16-11-10-13-6-4-5-7-14(13)12-16/h1-12,17H",KEQFTVQCIQJIQW-UHFFFAOYSA-N,?,395.5,101432
101435,136-60-7,136-60-7,CCCCOC(=O)c1ccccc1,BUTYL BENZOATE,Butyl benzoate,butyl benzoate,20497,DTXSID8040694,CCCCOC(=O)c1ccccc1,"InChI=1S/C11H14O2/c1-2-3-9-13-11(12)10-7-5-4-6-8-10/h4-8H,2-3,9H2,1H3",XSIFPSYPOVKYCO-UHFFFAOYSA-N,?,250.3,101435
101436,136-77-6,136-77-6,CCCCCCc1ccc(O)cc1O,4-HEXYLRESORCINOL,4-Hexylresorcinol,C12H18O2,20498,DTXSID1020699,CCCCCCc1ccc(O)cc1O,"InChI=1S/C12H18O2/c1-2-3-4-5-6-10-7-8-11(13)9-12(10)14/h7-9,13-14H,2-6H2,1H3",WFJIVOKAWHGMBH-UHFFFAOYSA-N,?,334.0,101436
101437,136-80-1,136-80-1,Cc1ccccc1NCCO,"Ethanol, 2- (2-methylphenyl)amino -","Ethanol, 2-[(2-methylphenyl)amino]-",2-[(2-methylphenyl)amino]ethanol,20499,DTXSID5059664,Cc1ccccc1NCCO,"InChI=1S/C9H13NO/c1-8-4-2-3-5-9(8)10-6-7-11/h2-5,10-11H,6-7H2,1H3",DHZZPKMVVSTYLF-UHFFFAOYSA-N,?,285.5,101437
101439,137-07-5,137-07-5,Nc1ccccc1S,O-AMINOTHIOPHENOL,2-Aminobenzenethiol,2-aminobenzenethiol,20501,DTXSID6051693,Nc1ccccc1S,"InChI=1S/C6H7NS/c7-5-3-1-2-4-6(5)8/h1-4,8H,7H2",VRVRGVPWCUEOGV-UHFFFAOYSA-N,?,234.0,101439
101440,137-17-7,137-17-7,Cc1cc(N)c(C)cc1C,"2,4,5-Trimethylaniline","2,4,5-Trimethylaniline","2,4,5-trimethylaniline",20502,DTXSID9021398,Cc1cc(N)c(C)cc1C,"InChI=1S/C9H13N/c1-6-4-8(3)9(10)5-7(6)2/h4-5H,10H2,1-3H3",BMIPMKQAAJKBKP-UHFFFAOYSA-N,?,234.5,101440
101441,137-19-9,137-19-9,Oc1cc(O)c(Cl)cc1Cl,"1,3-Benzenediol, 4,6-dichloro-","4,6-Dichloro-1,3-benzenediol","4,6-dichlorobenzene-1,3-diol",20503,DTXSID8021563,Oc1cc(O)c(Cl)cc1Cl,"InChI=1S/C6H4Cl2O2/c7-3-1-4(8)6(10)2-5(3)9/h1-2,9-10H",GRLQBYQELUWBIO-UHFFFAOYSA-N,?,254.0,101441
101443,137-43-9,137-43-9,BrC1CCCC1,"Cyclopentane, bromo-","Cyclopentane, bromo-",,20505,DTXSID9059670,BrC1CCCC1,"InChI=1S/C5H9Br/c6-5-3-1-2-4-5/h5H,1-4H2",BRTFVKHPEHKBQF-UHFFFAOYSA-N,?,137.5,101443
101444,138-22-7,138-22-7,CCCCOC(=O)C(C)O,BUTYL LACTATE,Butyl lactate,butyl 2-hydroxypropanoate,20506,DTXSID7042196,CCCCOC(=O)C(C)O,"InChI=1S/C7H14O3/c1-3-4-5-10-7(9)6(2)8/h6,8H,3-5H2,1-2H3",MRABAEUHTLLEML-UHFFFAOYSA-N,?,186.0,101444
101445,138-86-3|5989-27-5|5989-54-8,138-86-3|5989-27-5|5989-54-8,CC1CCC(CC=1)C(C)=C,"LIMONENE, D-LIMONENE, S-(-)-LIMONENE",Limonene,1-methyl-4-(prop-1-en-2-yl)cyclohexene,20507|23864|23865,DTXSID2029612|DTXSID1020778|DTXSID6047078,CC1CCC(CC=1)C(C)=C,"InChI=1S/C10H16/c1-8(2)10-6-4-9(3)5-7-10/h4,10H,1,5-7H2,2-3H3",XMGQYMWWDOXHJM-UHFFFAOYSA-N,?,176.0,101445
101447,139-65-1,139-65-1,Nc1ccc(cc1)Sc1ccc(N)cc1,"4,4'-THIODIANILINE","4,4'-Thiodianiline","4,4'-sulfanediyldianiline",20509,DTXSID9021344,Nc1ccc(cc1)Sc1ccc(N)cc1,"InChI=1S/C12H12N2S/c13-9-1-5-11(6-2-9)15-12-7-3-10(14)4-8-12/h1-8H,13-14H2",ICNFHJVPAJKPHW-UHFFFAOYSA-N,?,361.0,101447
101448,139-66-2,139-66-2,c1ccccc1Sc1ccccc1,DIPHENYLSULFIDE,Diphenyl sulfide,diphenyl sulfide,20510,DTXSID8044383,c1ccccc1Sc1ccccc1,InChI=1S/C12H10S/c1-3-7-11(8-4-1)13-12-9-5-2-6-10-12/h1-10H,LTYMSROWYAPPGB-UHFFFAOYSA-N,?,296.0,101448
101449,139-87-7,139-87-7,CCN(CCO)CCO,"Ethanol, 2,2'-(ethylimino)bis-",Ethyl diethanolamine,"2,2'-(ethylimino)diethanol",20511,DTXSID8041955,CCN(CCO)CCO,"InChI=1S/C6H15NO2/c1-2-7(3-5-8)4-6-9/h8-9H,2-6H2,1H3",AKNUHUCEWALCOI-UHFFFAOYSA-N,?,247.0,101449
101451,140-11-4,140-11-4,CC(=O)OCc1ccccc1,BENZYL ACETATE,Benzyl acetate,benzyl acetate,20513,DTXSID0020151,CC(=O)OCc1ccccc1,"InChI=1S/C9H10O2/c1-8(10)11-7-9-5-3-2-4-6-9/h2-6H,7H2,1H3",QUKGYYKBILRGFE-UHFFFAOYSA-N,?,213.0,101451
101452,140-29-4,140-29-4,N#CCc1ccccc1,PHENYLACETONITRILE,Benzyl cyanide,phenylacetonitrile,20514,DTXSID2021492,N#CCc1ccccc1,"InChI=1S/C8H7N/c9-7-6-8-4-2-1-3-5-8/h1-5H,6H2",SUSQOBVLVYHIEX-UHFFFAOYSA-N,?,233.5,101452
101453,140-31-8,140-31-8,NCCN1CCNCC1,1-Piperazineethanamine,1-(2-Aminoethyl)piperazine,2-(piperazin-1-yl)ethanamine,20515,DTXSID2021997,NCCN1CCNCC1,"InChI=1S/C6H15N3/c7-1-4-9-5-2-8-3-6-9/h8H,1-7H2",IMUDHTPIFIBORV-UHFFFAOYSA-N,?,220.0,101453
101455,140-67-0,140-67-0,COc1ccc(CC=C)cc1,"Benzene, 1-methoxy-4-(2-propenyl)-",Estragole,1-methoxy-4-(prop-2-en-1-yl)benzene,20517,DTXSID0020575,COc1ccc(CC=C)cc1,"InChI=1S/C10H12O/c1-3-4-9-5-7-10(11-2)8-6-9/h3,5-8H,1,4H2,2H3",ZFMSMUAANRJZFM-UHFFFAOYSA-N,?,215.5,101455
101456,140-76-1,140-76-1,Cc1ccc(C=C)c[n]1,2-METHYL-5-VINYLPYRIDINE,2-Methyl-5-vinylpyridine,5-Ethenyl-2-methylpyridine,20518,DTXSID2059699,Cc1ccc(C=C)c[n]1,"InChI=1S/C8H9N/c1-3-8-5-4-7(2)9-6-8/h3-6H,1H2,2H3",VJOWMORERYNYON-UHFFFAOYSA-N,?,181.0,101456
101457,140-80-7,NOCAS_870486,CC(N)CCCN(CC)CC,"1,4-Pentanediamine, N1,N1-diethyl-",,,20519,DTXSID40870486,CC(N)CCCN(CC)CC,"InChI=1S/C9H22N2/c1-4-11(5-2)8-6-7-9(3)10/h9H,4-8,10H2,1-3H3",CAPCBAYULRXQAN-UHFFFAOYSA-N,?,201.0,101457
101459,140-88-5,140-88-5,CCOC(=O)C=C,ETHYL ACRYLATE,Ethyl acrylate,ethyl prop-2-enoate,20521,DTXSID4020583,CCOC(=O)C=C,"InChI=1S/C5H8O2/c1-3-5(6)7-4-2/h3H,1,4H2,2H3",JIGUQPWFLRLWPJ-UHFFFAOYSA-N,?,99.4,101459
101460,141-02-6,141-02-6,CCCCC(COC(=O)/C=C/C(=O)OCC(CCCC)CC)CC,2-Ethylhexyl fumarate,Di(2-ethylhexyl) fumarate,bis(2-ethylhexyl) (2E)-but-2-enedioate,20522,DTXSID2051710,CCCCC(COC(=O)C=CC(=O)OCC(CCCC)CC)CC,"InChI=1S/C20H36O4/c1-5-9-11-17(7-3)15-23-19(21)13-14-20(22)24-16-18(8-4)12-10-6-2/h13-14,17-18H,5-12,15-16H2,1-4H3/b14-13+",ROPXFXOUUANXRR-BUHFOSPRSA-N,?,300.0,101460