ChemID,source_casrn,CAS,SMILES,NAME,preferred_name,iupac,MPID,dsstox_substance_id,Canonical_QSARr,InChI_Code_QSARr,InChI Key_QSARr,Salt_Solvent,BP,ID
102357,586-62-9,586-62-9,CC(C)=C1CC=C(C)CC1,TERPINOLENE,Terpinolene,1-methyl-4-(propan-2-ylidene)cyclohexene,21372,DTXSID0027222,CC(C)=C1CC=C(C)CC1,"InChI=1S/C10H16/c1-8(2)10-6-4-9(3)5-7-10/h4H,5-7H2,1-3H3",MOYAFQVGZZPNRA-UHFFFAOYSA-N,?,186.0,102357
102361,587-02-0,587-02-0,CCc1cccc(N)c1,m-Ethylaniline,3-Ethylaniline,3-ethylaniline,21376,DTXSID1051434,CCc1cccc(N)c1,"InChI=1S/C8H11N/c1-2-7-4-3-5-8(9)6-7/h3-6H,2,9H2,1H3",AMKPQMFZCBTTAT-UHFFFAOYSA-N,?,214.0,102361
102366,588-96-5,588-96-5,CCOc1ccc(Br)cc1,"Benzene, 1-bromo-4-ethoxy-","Benzene, 1-bromo-4-ethoxy-",1-bromo-4-ethoxybenzene,21381,DTXSID6060426,CCOc1ccc(Br)cc1,"InChI=1S/C8H9BrO/c1-2-10-8-5-3-7(9)4-6-8/h3-6H,2H2,1H3",WVUYYXUATWMVIT-UHFFFAOYSA-N,?,231.0,102366
102370,589-17-3,589-17-3,ClCc1ccc(Br)cc1,p-Bromobenzyl chloride,p-Bromobenzyl chloride,1-Bromo-4-(chloromethyl)benzene,21385,DTXSID20207630,ClCc1ccc(Br)cc1,"InChI=1S/C7H6BrCl/c8-7-3-1-6(5-9)2-4-7/h1-4H,5H2",BSIIGUGKOPPTPZ-UHFFFAOYSA-N,?,236.0,102370
102374,589-38-8,589-38-8,CCC(=O)CCC,3-HEXANONE,3-Hexanone,hexan-3-one,21389,DTXSID2021608,CCC(=O)CCC,"InChI=1S/C6H12O/c1-3-5-6(7)4-2/h3-5H2,1-2H3",PFCHFHIRKBAQGU-UHFFFAOYSA-N,?,123.5,102374
102378,589-55-9,589-55-9,CCCC(O)CCC,4-HEPTANOL,4-Heptanol,Heptan-4-ol,21393,DTXSID1060429,CCCC(O)CCC,"InChI=1S/C7H16O/c1-3-5-7(8)6-4-2/h7-8H,3-6H2,1-2H3",YVBCULSIZWMTFY-UHFFFAOYSA-N,?,156.0,102378
102382,589-63-9,589-63-9,CCCC(=O)CCCC,4-OCTANONE,Octan-4-one,Octan-4-one,21397,DTXSID40207637,CCCC(=O)CCCC,"InChI=1S/C8H16O/c1-3-5-7-8(9)6-4-2/h3-7H2,1-2H3",YWXLSHOWXZUMSR-UHFFFAOYSA-N,?,163.0,102382
102386,589-90-2,589-90-2,CC1CCC(C)CC1,"1,4-DIMETHYLCYCLOHEXANE","Cyclohexane, 1,4-dimethyl-","1,4-Dimethylcyclohexane",21401,DTXSID5075284,CC1CCC(C)CC1,"InChI=1S/C8H16/c1-7-3-5-8(2)6-4-7/h7-8H,3-6H2,1-2H3",QRMPKOFEUHIBNM-UHFFFAOYSA-N,?,120.0,102386
102390,589-98-0,22658-92-0,CCCCC[C@@H](O)CC,3-OCTANOL,(3S)-octan-3-ol,C8H18O,21405,DTXSID40426427,CCCCCC(O)CC,"InChI=1S/C8H18O/c1-3-5-6-7-8(9)4-2/h8-9H,3-7H2,1-2H3",NMRPBPVERJPACX-UHFFFAOYSA-N,?,171.0,102390
102396,590-18-1|624-64-6,590-18-1|624-64-6,C/C=C\C,"CIS-2-BUTENE, TRANS-2-BUTENE","2-Butene, (2Z)-",(2Z)-but-2-ene,21411|21873,DTXSID0027224|DTXSID7027255,CC=CC,"InChI=1S/C4H8/c1-3-4-2/h3-4H,1-2H3/b4-3+",IAQRGUVFOMOMEM-ONEGZZNKSA-N,?,2.25,102396
102400,590-36-3,590-36-3,CCCC(C)(C)O,2-METHYL-2-PENTANOL,2-Methyl-2-pentanol,2-Methylpentan-2-ol,21415,DTXSID4060440,CCCC(C)(C)O,"InChI=1S/C6H14O/c1-4-5-6(2,3)7/h7H,4-5H2,1-3H3",WFRBDWRZVBPBDO-UHFFFAOYSA-N,?,121.1,102400
102404,590-67-0,590-67-0,CC1(O)CCCCC1,1-METHYLCYCLOHEXANOL,1-Methylcyclohexanol,1-methylcyclohexan-1-ol,21419,DTXSID00207739,CC1(O)CCCCC1,"InChI=1S/C7H14O/c1-7(8)5-3-2-4-6-7/h8H,2-6H2,1H3",VTBOTOBFGSVRMA-UHFFFAOYSA-N,?,155.0,102404
102408,590-93-2,590-93-2,CC#CC(O)=O,2-Butynoic acid,2-Butynoic acid,but-2-ynoic acid,21423,DTXSID4060444,CC#CC(O)=O,"InChI=1S/C4H4O2/c1-2-3-4(5)6/h1H3,(H,5,6)",LUEHNHVFDCZTGL-UHFFFAOYSA-N,?,203.0,102408
102412,591-19-5,591-19-5,Nc1cc(Br)ccc1,M-BROMOANILINE,m-Bromoaniline,3-Bromoaniline,21427,DTXSID4060448,Nc1cc(Br)ccc1,"InChI=1S/C6H6BrN/c7-5-2-1-3-6(8)4-5/h1-4H,8H2",DHYHYLGCQVVLOQ-UHFFFAOYSA-N,?,251.0,102412
102416,591-23-1,591-23-1,CC1CC(O)CCC1,3-METHYLCYCLOHEXANOL,,,21431,DTXSID80870642,CC1CC(O)CCC1,"InChI=1S/C7H14O/c1-6-3-2-4-7(8)5-6/h6-8H,2-5H2,1H3",HTSABYAWKQAHBT-UHFFFAOYSA-N,?,163.0,102416
102420,591-35-5,591-35-5,Oc1cc(Cl)cc(Cl)c1,"3,5-DICHLOROPHENOL","3,5-Dichlorophenol","3,5-dichlorophenol",21435,DTXSID2025006,Oc1cc(Cl)cc(Cl)c1,"InChI=1S/C6H4Cl2O/c7-4-1-5(8)3-6(9)2-4/h1-3,9H",VPOMSPZBQMDLTM-UHFFFAOYSA-N,?,233.0,102420
102424,591-50-4,591-50-4,Ic1ccccc1,IODOBENZENE,"Benzene, iodo-",Iodobenzene,21439,DTXSID8060452,Ic1ccccc1,InChI=1S/C6H5I/c7-6-4-2-1-3-5-6/h1-5H,SNHMUERNLJLMHN-UHFFFAOYSA-N,?,188.4,102424
102428,591-78-6,591-78-6,CCCCC(C)=O,2-HEXANONE,2-Hexanone,hexan-2-one,21443,DTXSID0022068,CCCCC(C)=O,"InChI=1S/C6H12O/c1-3-4-5-6(2)7/h3-5H2,1-2H3",QQZOPKMRPOGIEB-UHFFFAOYSA-N,?,127.6,102428
102432,591-93-5,591-93-5,C=CCC=C,"1,4-PENTADIENE","1,4-Pentadiene","Penta-1,4-diene",21447,DTXSID8060456,C=CCC=C,"InChI=1S/C5H8/c1-3-5-4-2/h3-4H,1-2,5H2",QYZLKGVUSQXAMU-UHFFFAOYSA-N,?,26.0,102432
102436,592-13-2,592-13-2,CC(C)CCC(C)C,"2,5-DIMETHYLHEXANE","2,5-Dimethylhexane","2,5-Dimethylhexane",21451,DTXSID4073201,CC(C)CCC(C)C,"InChI=1S/C8H18/c1-7(2)5-6-8(3)4/h7-8H,5-6H2,1-4H3",UWNADWZGEHDQAB-UHFFFAOYSA-N,?,109.1,102436
102440,592-41-6,592-41-6,CCCCC=C,1-HEXENE,1-Hexene,hex-1-ene,21455,DTXSID4025402,CCCCC=C,"InChI=1S/C6H12/c1-3-5-6-4-2/h3H,1,4-6H2,2H3",LIKMAJRDDDTEIG-UHFFFAOYSA-N,?,63.4,102440
102444,592-46-1,5194-51-4,C/C=C/C=C/C,"2,4-Hexadiene","2,4-Hexadiene","(2E,4E)-hexa-2,4-diene",21459,DTXSID10859501,CC=CC=CC,"InChI=1S/C6H10/c1-3-5-6-4-2/h3-6H,1-2H3/b5-3+,6-4+",APPOKADJQUIAHP-GGWOSOGESA-N,?,80.0,102444
102448,592-51-8,592-51-8,C=CCCC#N,4-Pentenenitrile,4-Pentenenitrile,pent-4-enenitrile,21463,DTXSID0027228,C=CCCC#N,"InChI=1S/C5H7N/c1-2-3-4-5-6/h2H,1,3-4H2",CFEYBLWMNFZOPB-UHFFFAOYSA-N,?,140.0,102448
102452,592-76-7,592-76-7,CCCCCC=C,1-HEPTENE,1-Heptene,hept-1-ene,21467,DTXSID2060466,CCCCCC=C,"InChI=1S/C7H14/c1-3-5-7-6-4-2/h3H,1,4-7H2,2H3",ZGEGCLOFRBLKSE-UHFFFAOYSA-N,?,93.6,102452
102456,592-90-5,592-90-5,C1CCCCCO1,OXEPANE,Oxepane,OXEPANE,21471,DTXSID1060471,C1CCCCCO1,InChI=1S/C6H12O/c1-2-4-6-7-5-3-1/h1-6H2,UHHKSVZZTYJVEG-UHFFFAOYSA-N,?,119.0,102456
102460,593-49-7,593-49-7,CCCCCCCCCCCCCCCCCCCCCCCCCCC,HEPTACOSANE,Heptacosane,Heptacosane,21475,DTXSID6058637,CCCCCCCCCCCCCCCCCCCCCCCCCCC,"InChI=1S/C27H56/c1-3-5-7-9-11-13-15-17-19-21-23-25-27-26-24-22-20-18-16-14-12-10-8-6-4-2/h3-27H2,1-2H3",BJQWYEJQWHSSCJ-UHFFFAOYSA-N,?,442.0,102460
102465,593-60-2,593-60-2,C=CBr,BROMOETHENE,Vinyl bromide,bromoethene,21479,DTXSID8021432,C=CBr,"InChI=1S/C2H3Br/c1-2-3/h2H,1H2",INLLPKCGLOXCIV-UHFFFAOYSA-N,?,15.8,102465
102469,593-71-5,593-71-5,ClCI,CHLOROIODOMETHANE,Chloroiodomethane,,21483,DTXSID50208034,ClCI,InChI=1S/CH2ClI/c2-1-3/h1H2,PJGJQVRXEUVAFT-UHFFFAOYSA-N,?,109.0,102469
102474,593-90-8,593-90-8,CB(C)C,Trimethyl boron,Trimethylborane,Trimethylborane,21487,DTXSID90208038,CB(C)C,InChI=1S/C3H9B/c1-4(2)3/h1-3H3,WXRGABKACDFXMG-UHFFFAOYSA-N,?,-20.2,102474
102478,594-02-5,594-02-5,CC(I)I,"1,1-diiodoethane","1,1-Diiodoethane","1,1-Diiodoethane",21491,DTXSID70208117,CC(I)I,"InChI=1S/C2H4I2/c1-2(3)4/h2H,1H3",JNVXRQOSRUDXDY-UHFFFAOYSA-N,?,179.5,102478
102483,594-15-0,594-15-0,ClC(Br)(Br)Br,tribromochloromethane,Tribromochloromethane,tribromo(chloro)methane,21495,DTXSID0024347,ClC(Br)(Br)Br,"InChI=1S/CBr3Cl/c2-1(3,4)5",GKXZMEXQUWZGJK-UHFFFAOYSA-N,?,158.5,102483
102487,594-22-9,NOCAS_870652,ClC(Cl)(Cl)I,trichloroiodomethane,,,21499,DTXSID30870652,ClC(Cl)(Cl)I,"InChI=1S/CCl3I/c2-1(3,4)5",SFLKZLQXODICBP-UHFFFAOYSA-N,?,142.0,102487
102494,594-42-3,594-42-3,ClSC(Cl)(Cl)Cl,PERCHLOROMETHYL MERCAPTAN,Perchloromethylmercaptan,trichloro(chlorosulfanyl)methane,21503,DTXSID6025854,ClSC(Cl)(Cl)Cl,"InChI=1S/CCl4S/c2-1(3,4)6-5",RYFZYYUIAZYQLC-UHFFFAOYSA-N,?,147.5,102494
102498,594-61-6,594-61-6,CC(C)(O)C(O)=O,A-HYDROXY-I-BUTYRIC ACID,2-Hydroxyisobutyric acid,2-hydroxy-2-methylpropanoic acid,21507,DTXSID4032954,CC(C)(O)C(O)=O,"InChI=1S/C4H8O3/c1-4(2,7)3(5)6/h7H,1-2H3,(H,5,6)",BWLBGMIXKSTLSX-UHFFFAOYSA-N,?,212.0,102498
102502,594-82-1,594-82-1,CC(C)(C)C(C)(C)C,"2,2,3,3-TETRAMETHYLBUTANE","Butane, 2,2,3,3-tetramethyl-","2,2,3,3-Tetramethylbutane",21511,DTXSID9073204,CC(C)(C)C(C)(C)C,"InChI=1S/C8H18/c1-7(2,3)8(4,5)6/h1-6H3",OMMLUKLXGSRPHK-UHFFFAOYSA-N,?,106.4,102502
102507,595-41-5,NOCAS_870656,CCC(C)(O)C(C)C,"2,3-DIMETHYL-3-PENTANOL",,,21515,DTXSID70870656,CCC(C)(O)C(C)C,"InChI=1S/C7H16O/c1-5-7(4,8)6(2)3/h6,8H,5H2,1-4H3",RFZHJHSNHYIRNE-UHFFFAOYSA-N,?,139.7,102507
102512,597-05-7,597-05-7,CC(C)C(O)(CC)CC,"3-PENTANOL, 3-ETHYL-2-METHYL-",3-Ethyl-2-methyl-3-pentanol,3-ethyl-2-methylpentan-3-ol,21519,DTXSID60208404,CC(C)C(O)(CC)CC,"InChI=1S/C8H18O/c1-5-8(9,6-2)7(3)4/h7,9H,5-6H2,1-4H3",DMHIJUVUPKCGLJ-UHFFFAOYSA-N,?,160.0,102512
102516,597-52-4,597-52-4,CC[Si](O)(CC)CC,Triethyl hydroxy silicon,"Silanol, triethyl-",triethyl-hydroxysilane,21523,DTXSID4060498,CC[Si](O)(CC)CC,"InChI=1S/C6H16OSi/c1-4-8(7,5-2)6-3/h7H,4-6H2,1-3H3",WVMSIBFANXCZKT-UHFFFAOYSA-N,?,154.0,102516
102521,598-01-6,598-01-6,CC(O)(CCC)CCC,"4-HEPTANOL, 4-METHYL-",4-Methyl-4-heptanol,4-methylheptan-4-ol,21527,DTXSID60208525,CC(O)(CCC)CCC,"InChI=1S/C8H18O/c1-4-6-8(3,9)7-5-2/h9H,4-7H2,1-3H3",IQXKGRKRIRMQCQ-UHFFFAOYSA-N,?,161.0,102521
102525,598-16-3,598-16-3,BrC=C(Br)Br,"ETHENE, TRIBROMO-",Tribromoethene,"1,1,2-tribromoethene",21531,DTXSID5044150,BrC=C(Br)Br,InChI=1S/C2HBr3/c3-1-2(4)5/h1H,OZVJKTHTULCNHB-UHFFFAOYSA-N,?,164.0,102525
102529,598-23-2,598-23-2,CC(C)C#C,"1-BUTYNE, 3-METHYL-",3-Methylbut-1-yne,3-Methylbut-1-yne,21535,DTXSID40208528,CC(C)C#C,"InChI=1S/C5H8/c1-4-5(2)3/h1,5H,2-3H3",USCSRAJGJYMJFZ-UHFFFAOYSA-N,?,26.3,102529
102533,598-38-9,598-38-9,OCC(Cl)Cl,"2,2-DICHLOROETHANOL","2,2-Dichloroethanol","2,2-dichloroethanol",21539,DTXSID4024989,OCC(Cl)Cl,"InChI=1S/C2H4Cl2O/c3-2(4)1-5/h2,5H,1H2",IDJOCJAIQSKSOP-UHFFFAOYSA-N,?,146.0,102533
102537,598-58-3,598-58-3,CO[N+]([O-])=O,METHYLNITRATE,Methyl nitrate,METHYL NITRATE,21543,DTXSID4073205,CO[N+]([O-])=O,InChI=1S/CH3NO3/c1-5-2(3)4/h1H3,LRMHVVPPGGOAJQ-UHFFFAOYSA-N,?,64.6,102537
102541,598-74-3,598-74-3,CC(C)C(C)N,3-Methyl-2-butanamine,"1,2-Dimethylpropylamine",3-methylbutan-2-amine,21547,DTXSID4022074,CC(C)C(C)N,"InChI=1S/C5H13N/c1-4(2)5(3)6/h4-5H,6H2,1-3H3",JOZZAIIGWFLONA-UHFFFAOYSA-N,?,85.5,102541
102545,598-78-7,598-78-7,CC(Cl)C(O)=O,2-CHLOROPROPIONIC ACID,2-Chloropropanoic acid,2-chloropropanoic acid,21551,DTXSID0021545,CC(Cl)C(O)=O,"InChI=1S/C3H5ClO2/c1-2(4)3(5)6/h2H,1H3,(H,5,6)",GAWAYYRQGQZKCR-UHFFFAOYSA-N,?,185.0,102545
102549,598-98-1,598-98-1,COC(=O)C(C)(C)C,"PROPANOIC ACID, 2,2-DIMETHYL-, METHYL ESTER",Methyl pivalate,"methyl 2,2-dimethylpropanoate",21555,DTXSID4027234,COC(=O)C(C)(C)C,"InChI=1S/C6H12O2/c1-6(2,3)5(7)8-4/h1-4H3",CNMFHDIDIMZHKY-UHFFFAOYSA-N,?,101.1,102549
102553,599-97-3,599-97-3,CCOC(OCC)C(Cl)(Cl)Cl,"ETHANE, 1,1,1-TRICHLORO-2,2-DIETHOXY-","Ethane, 1,1,1-trichloro-2,2-diethoxy-","1,1,1-trichloro-2,2-diethoxyethane",21559,DTXSID90208614,CCOC(OCC)C(Cl)(Cl)Cl,"InChI=1S/C6H11Cl3O2/c1-3-10-5(11-4-2)6(7,8)9/h5H,3-4H2,1-2H3",CGCJBAIEQANINV-UHFFFAOYSA-N,?,197.0,102553
102559,600-14-6,600-14-6,CC(=O)C(=O)CC,"2,3-Pentanedione","2,3-Pentanedione","pentane-2,3-dione",21563,DTXSID6051435,CC(=O)C(=O)CC,"InChI=1S/C5H8O2/c1-3-5(7)4(2)6/h3H2,1-2H3",TZMFJUDUGYTVRY-UHFFFAOYSA-N,?,108.0,102559
102563,600-36-2,600-36-2,CC(C)C(O)C(C)C,"2,4-DIMETHYL-3-PENTANOL","2,4-Dimethyl-3-pentanol","2,4-dimethylpentan-3-ol",21567,DTXSID9022075,CC(C)C(O)C(C)C,"InChI=1S/C7H16O/c1-5(2)7(8)6(3)4/h5-8H,1-4H3",BAYAKMPRFGNNFW-UHFFFAOYSA-N,?,138.7,102563
102567,602-29-9,602-29-9,Cc1ccc(c(c1[N+]([O-])=O)[N+]([O-])=O)[N+]([O-])=O,"2,3,4-TRINITRO-toluene","2,3,4-Trinitrotoluene","1-methyl-2,3,4-trinitrobenzene",21571,DTXSID60208944,Cc1ccc(c(c1[N+]([O-])=O)[N+]([O-])=O)[N+]([O-])=O,"InChI=1S/C7H5N3O6/c1-4-2-3-5(8(11)12)7(10(15)16)6(4)9(13)14/h2-3H,1H3",FPKOPBFLPLFWAD-UHFFFAOYSA-N,?,301.0,102567
102571,603-32-7,603-32-7,c1ccccc1[As](c1ccccc1)c1ccccc1,TRIPHENYLARSINE,"Arsine, triphenyl-",tri(phenyl)arsane,21575,DTXSID4060529,c1ccccc1[As](c1ccccc1)c1ccccc1,InChI=1S/C18H15As/c1-4-10-16(11-5-1)19(17-12-6-2-7-13-17)18-14-8-3-9-15-18/h1-15H,BPLUKJNHPBNVQL-UHFFFAOYSA-N,?,360.0,102571
102575,603-71-4,603-71-4,Cc1cc(C)c(c(C)c1)[N+]([O-])=O,"Benzene, 1,3,5-trimethyl-2-nitro-","Benzene, 1,3,5-trimethyl-2-nitro-","1,3,5-Trimethyl-2-nitrobenzene",21579,DTXSID8060533,Cc1cc(C)c(c(C)c1)[N+]([O-])=O,"InChI=1S/C9H11NO2/c1-6-4-7(2)9(10(11)12)8(3)5-6/h4-5H,1-3H3",SCEKDQTVGHRSNS-UHFFFAOYSA-N,?,255.0,102575
102579,605-01-6,605-01-6,CCc1c(CC)c(CC)cc(CC)c1CC,"Benzene, pentaethyl-",Pentaethylbenzene,"1,2,3,4,5-pentaethylbenzene",21583,DTXSID3060538,CCc1c(CC)c(CC)cc(CC)c1CC,"InChI=1S/C16H26/c1-6-12-11-13(7-2)15(9-4)16(10-5)14(12)8-3/h11H,6-10H2,1-5H3",JREJWHNDQOGSQT-UHFFFAOYSA-N,?,277.0,102579
102583,606-20-2,606-20-2,Cc1c(cccc1[N+]([O-])=O)[N+]([O-])=O,"2,6-DINITROTOLUENE","2,6-Dinitrotoluene","2-methyl-1,3-dinitrobenzene",21587,DTXSID5020528,Cc1c(cccc1[N+]([O-])=O)[N+]([O-])=O,"InChI=1S/C7H6N2O4/c1-5-6(8(10)11)3-2-4-7(5)9(12)13/h2-4H,1H3",XTRDKALNCIHHNI-UHFFFAOYSA-N,?,300.0,102583
102587,606-43-9,606-43-9,CN1C(=O)C=Cc2ccccc12,1-METHYL-2(H)-QUINOLINONE,"2(1H)-Quinolinone, 1-methyl-",1-methylquinolin-2-one,21591,DTXSID1060552,CN1C(=O)C=Cc2ccccc12,"InChI=1S/C10H9NO/c1-11-9-5-3-2-4-8(9)6-7-10(11)12/h2-7H,1H3",QYEMNJMSULGQRD-UHFFFAOYSA-N,?,325.0,102587
102591,607-01-2,607-01-2,CCP(c1ccccc1)c1ccccc1,"Phosphine, ethyldiphenyl-","Phosphine, ethyldiphenyl-",ethyl-di(phenyl)phosphane,21595,DTXSID4073207,CCP(c1ccccc1)c1ccccc1,"InChI=1S/C14H15P/c1-2-15(13-9-5-3-6-10-13)14-11-7-4-8-12-14/h3-12H,2H2,1H3",WUOIAOOSKMHJOV-UHFFFAOYSA-N,?,293.0,102591
102595,607-90-9,607-90-9,CCCOC(=O)c1ccccc1O,"BENZOIC ACID, 2-HYDROXY-, PROPYL ESTER",Propyl salicylate,propyl 2-hydroxybenzoate,21599,DTXSID3046790,CCCOC(=O)c1ccccc1O,"InChI=1S/C10H12O3/c1-2-7-13-10(12)8-5-3-4-6-9(8)11/h3-6,11H,2,7H2,1H3",LZFIOSVZIQOVFW-UHFFFAOYSA-N,?,239.0,102595
102599,608-25-3,608-25-3,Cc1c(O)cccc1O,"1,3-Benzenediol, 2-methyl-","2-Methyl-1,3-benzenediol","2-methylbenzene-1,3-diol",21603,DTXSID0025571,Cc1c(O)cccc1O,"InChI=1S/C7H8O2/c1-5-6(8)3-2-4-7(5)9/h2-4,8-9H,1H3",ZTMADXFOCUXMJE-UHFFFAOYSA-N,?,264.0,102599
102603,608-30-0,608-30-0,Nc1c(Br)cccc1Br,"2,6-Dibromoaniline","2,6-Dibromoaniline","2,6-DIBROMOANILINE",21607,DTXSID10209643,Nc1c(Br)cccc1Br,"InChI=1S/C6H5Br2N/c7-4-2-1-3-5(8)6(4)9/h1-3H,9H2",XIRRDAWDNHRRLB-UHFFFAOYSA-N,?,263.0,102603
102607,608-93-5,608-93-5,Clc1c(Cl)c(Cl)cc(Cl)c1Cl,PENTACHLOROBENZENE,Pentachlorobenzene,"1,2,3,4,5-pentachlorobenzene",21611,DTXSID7024247,Clc1c(Cl)c(Cl)cc(Cl)c1Cl,InChI=1S/C6HCl5/c7-2-1-3(8)5(10)6(11)4(2)9/h1H,CEOCDNVZRAIOQZ-UHFFFAOYSA-N,?,277.0,102607
102611,609-12-1,NOCAS_870681,CC(C)C(Br)C(=O)OCC,"Butanoic acid, 2-bromo-3-methyl-, ethyl ester",,,21615,DTXSID20870681,CC(C)C(Br)C(=O)OCC,"InChI=1S/C7H13BrO2/c1-4-10-7(9)6(8)5(2)3/h5-6H,4H2,1-3H3",WNFUWONOILPKNX-UHFFFAOYSA-N,?,186.0,102611
102615,609-40-5,609-40-5,[O-][N+](=O)c1ccc[s]1,2-NITROTHIOPHENE,"Thiophene, 2-nitro-",2-Nitrothiophene,21619,DTXSID9060570,[O-][N+](=O)c1ccc[s]1,InChI=1S/C4H3NO2S/c6-5(7)4-2-1-3-8-4/h1-3H,JIZRGGUCOQKGQD-UHFFFAOYSA-N,?,224.5,102615
102619,610-15-1,610-15-1,NC(=O)c1ccccc1[N+]([O-])=O,2-NITROBENZAMIDE,2-Nitrobenzamide,2-nitrobenzamide,21623,DTXSID0025733,NC(=O)c1ccccc1[N+]([O-])=O,"InChI=1S/C7H6N2O3/c8-7(10)5-3-1-2-4-6(5)9(11)12/h1-4H,(H2,8,10)",KLGQWSOYKYFBTR-UHFFFAOYSA-N,?,317.0,102619
102623,610-67-3,610-67-3,CCOc1ccccc1[N+]([O-])=O,"Benzene, 1-ethoxy-2-nitro-","Benzene, 1-ethoxy-2-nitro-",1-Ethoxy-2-nitrobenzene,21627,DTXSID8060589,CCOc1ccccc1[N+]([O-])=O,"InChI=1S/C8H9NO3/c1-2-12-8-6-4-3-5-7(8)9(10)11/h3-6H,2H2,1H3",XGLGESCVNJSAQY-UHFFFAOYSA-N,?,267.0,102623
102627,610-97-9,610-97-9,COC(=O)c1ccccc1I,"BENZOIC ACID, 2-IODO-, METHYL ESTER","Benzoic acid, 2-iodo-, methyl ester",Methyl 2-iodobenzoate,21631,DTXSID7060594,COC(=O)c1ccccc1I,"InChI=1S/C8H7IO2/c1-11-8(10)6-4-2-3-5-7(6)9/h2-5H,1H3",BXXLTVBTDZXPTN-UHFFFAOYSA-N,?,280.0,102627
102631,611-13-2,611-13-2,COC(=O)c1ccco1,"FUROIC ACID, METHYL ESTER","2-Furancarboxylic acid, methyl ester",methyl furan-2-carboxylate,21635,DTXSID7060598,COC(=O)c1ccco1,"InChI=1S/C6H6O3/c1-8-6(7)5-3-2-4-9-5/h2-4H,1H3",HDJLSECJEQSPKW-UHFFFAOYSA-N,?,181.3,102631
102635,611-21-2,611-21-2,Cc1ccccc1NC,N-METHYL-O-TOLUIDINE,"Benzenamine, N,2-dimethyl-","N,2-Dimethylaniline",21639,DTXSID4060600,Cc1ccccc1NC,"InChI=1S/C8H11N/c1-7-5-3-4-6-8(7)9-2/h3-6,9H,1-2H3",GUAWMXYQZKVRCW-UHFFFAOYSA-N,?,207.5,102635
102639,611-35-8,611-35-8,Clc1cc[n]c2ccccc21,4-Chloroquinoline,4-Chloroquinoline,4-Chloroquinoline,21643,DTXSID40209979,Clc1cc[n]c2ccccc21,InChI=1S/C9H6ClN/c10-8-5-6-11-9-4-2-1-3-7(8)9/h1-6H,KNDOFJFSHZCKGT-UHFFFAOYSA-N,?,262.0,102639
102644,611-92-7,611-92-7,CN(C(=O)N(C)c1ccccc1)c1ccccc1,"Urea, N,N'-dimethyl-N,N'-diphenyl-","1,3-Dimethyl-1,3-diphenylurea","1,3-dimethyl-1,3-diphenylurea",21647,DTXSID3044964,CN(C(=O)N(C)c1ccccc1)c1ccccc1,"InChI=1S/C15H16N2O/c1-16(13-9-5-3-6-10-13)15(18)17(2)14-11-7-4-8-12-14/h3-12H,1-2H3",ADCBKYIHQQCFHE-UHFFFAOYSA-N,?,350.0,102644
102648,612-12-4,612-12-4,ClCc1ccccc1CCl,"Benzene, 1,2-bis(chloromethyl)-","1,2-Bis(chloromethyl)benzene","1,2-bis(chloromethyl)benzene",21651,DTXSID7052284,ClCc1ccccc1CCl,"InChI=1S/C8H8Cl2/c9-5-7-3-1-2-4-8(7)6-10/h1-4H,5-6H2",FMGGHNGKHRCJLL-UHFFFAOYSA-N,?,239.5,102648
102652,612-17-9,612-17-9,C1C=CCc2ccccc21,"Naphthalene, 1,4-dihydro-","1,4-Dihydronaphthalene","1,4-Dihydronaphthalene",21655,DTXSID9060607,C1C=CCc2ccccc21,"InChI=1S/C10H10/c1-2-6-10-8-4-3-7-9(10)5-1/h1-6H,7-8H2",FUPIVZHYVSCYLX-UHFFFAOYSA-N,?,211.5,102652
102656,612-58-8,612-58-8,Cc1cc2ccccc2[n]c1,3-METHYLQUINOLINE,3-Methylquinoline,3-METHYLQUINOLINE,21659,DTXSID60210108,Cc1cc2ccccc2[n]c1,"InChI=1S/C10H9N/c1-8-6-9-4-2-3-5-10(9)11-7-8/h2-7H,1H3",DTBDAFLSBDGPEA-UHFFFAOYSA-N,?,259.8,102656
102660,612-75-9,612-75-9,Cc1cc(ccc1)-c1cc(C)ccc1,"3,3'-DIMETHYLBIPHENYL","3,3'-Dimethylbiphenyl",1-methyl-3-(3-methylphenyl)benzene,21663,DTXSID90210111,Cc1cc(ccc1)-c1cc(C)ccc1,"InChI=1S/C14H14/c1-11-5-3-7-13(9-11)14-8-4-6-12(2)10-14/h3-10H,1-2H3",GVEDOIATHPCYGS-UHFFFAOYSA-N,?,280.0,102660
102664,613-03-6,NOCAS_862288,CC(=O)Oc1ccc(cc1OC(C)=O)OC(C)=O,"1,2,4-Benzenetriol, triacetate",,,21667,DTXSID20862288,CC(=O)Oc1ccc(cc1OC(C)=O)OC(C)=O,"InChI=1S/C12H12O6/c1-7(13)16-10-4-5-11(17-8(2)14)12(6-10)18-9(3)15/h4-6H,1-3H3",AESFGSJWSUZRGW-UHFFFAOYSA-N,?,300.0,102664
102669,613-46-7,613-46-7,N#Cc1cc2ccccc2cc1,2-Naphthalenecarbonitrile,2-Naphthalenecarbonitrile,NAPHTHALENE-2-CARBONITRILE,21671,DTXSID7060621,N#Cc1cc2ccccc2cc1,InChI=1S/C11H7N/c12-8-9-5-6-10-3-1-2-4-11(10)7-9/h1-7H,AZKDTTQQTKDXLH-UHFFFAOYSA-N,?,306.5,102669
102673,613-75-2,613-75-2,CC(=O)OC(OC(C)=O)c1ccco1,"Methanediol, 2-furanyl-, diacetate",,,21675,DTXSID80879478,CC(=O)OC(OC(C)=O)c1ccco1,"InChI=1S/C9H10O5/c1-6(10)13-9(14-7(2)11)8-4-3-5-12-8/h3-5,9H,1-2H3",NHOCEIKFQXQFMX-UHFFFAOYSA-N,?,220.0,102673
102678,613-93-4,613-93-4,CNC(=O)c1ccccc1,N-METHYLBENZAMIDE,N-Methylbenzamide,N-methylbenzamide,21679,DTXSID5025570,CNC(=O)c1ccccc1,"InChI=1S/C8H9NO/c1-9-8(10)7-5-3-2-4-6-7/h2-6H,1H3,(H,9,10)",NCCHARWOCKOHIH-UHFFFAOYSA-N,?,291.0,102678
102682,614-68-6,614-68-6,Cc1ccccc1N=C=O,"Benzene, 1-isocyanato-2-methyl-",1-Isocyanato-2-methylbenzene,1-isocyanato-2-methylbenzene,21683,DTXSID7052286,Cc1ccccc1N=C=O,"InChI=1S/C8H7NO/c1-7-4-2-3-5-8(7)9-6-10/h2-5H,1H3",VAYMIYBJLRRIFR-UHFFFAOYSA-N,?,185.0,102682
102686,614-96-0,614-96-0,Cc1cc2cc[nH]c2cc1,5-METHYLINDOLE,5-Methylindole,5-methyl-1H-indole,21687,DTXSID6060638,Cc1cc2cc[nH]c2cc1,"InChI=1S/C9H9N/c1-7-2-3-9-8(6-7)4-5-10-9/h2-6,10H,1H3",YPKBCLZFIYBSHK-UHFFFAOYSA-N,?,267.0,102686
102690,615-20-3,615-20-3,Clc1[n]c2ccccc2[s]1,"Benzothiazole, 2-chloro-",2-Chlorobenzothiazole,"2-chloro-1,3-benzothiazole",21691,DTXSID2052289,Clc1[n]c2ccccc2[s]1,InChI=1S/C7H4ClNS/c8-7-9-5-3-1-2-4-6(5)10-7/h1-4H,BSQLQMLFTHJVKS-UHFFFAOYSA-N,?,248.0,102690
102694,615-42-9,615-42-9,Ic1ccccc1I,"1,2-DIIODOBENZENE","Benzene, 1,2-diiodo-","1,2-Diiodobenzene",21695,DTXSID0060648,Ic1ccccc1I,InChI=1S/C6H4I2/c7-5-3-1-2-4-6(5)8/h1-4H,BBOLNFYSRZVALD-UHFFFAOYSA-N,?,287.0,102694
102698,615-60-1,615-60-1,Cc1cc(Cl)ccc1C,"3,4-DIMETHYLCHLOROBENZENE",4-Chloro-o-xylene,"4-chloro-1,2-dimethylbenzene",21699,DTXSID50210470,Cc1cc(Cl)ccc1C,"InChI=1S/C8H9Cl/c1-6-3-4-8(9)5-7(6)2/h3-5H,1-2H3",HNQLMBJUMVLFCF-UHFFFAOYSA-N,?,194.0,102698
102702,615-71-4,615-71-4,Nc1cc(N)c(N)cc1,"1,2,4-BENZENETRIAMINE","1,2,4-Triaminobenzene","benzene-1,2,4-triamine",21703,DTXSID70210472,Nc1cc(N)c(N)cc1,"InChI=1S/C6H9N3/c7-4-1-2-5(8)6(9)3-4/h1-3H,7-9H2",JSYBAZQQYCNZJE-UHFFFAOYSA-N,?,340.0,102702