ChemID,source_casrn,CAS,SMILES,NAME,preferred_name,iupac,MPID,dsstox_substance_id,Canonical_QSARr,InChI_Code_QSARr,InChI Key_QSARr,Salt_Solvent,BP,ID
104792,4740-00-5,NOCAS_871097,CC1CSCC1,"THIOPHENE, TETRAHYDRO-3-METHYL-",,,23682,DTXSID20871097,CC1CSCC1,"InChI=1S/C5H10S/c1-5-2-3-6-4-5/h5H,2-4H2,1H3",DLABLFPCTXRQMY-UHFFFAOYSA-N,?,139.0,104792
104796,4747-21-1,NOCAS_871098,CNC(C)C,"2-PROPANAMINE, N-METHYL-",,,23686,DTXSID80871098,CNC(C)C,"InChI=1S/C4H11N/c1-4(2)5-3/h4-5H,1-3H3",XHFGWHUWQXTGAT-UHFFFAOYSA-N,?,50.4,104796
104800,4771-80-6,5709-98-8,OC(=O)[C@H]1CC=CCC1,3-Cyclohexene-1-carboxylic acid,(R)-Cyclohex-3-enecarboxylic acid,C7H10O2,23690,DTXSID60353089,OC(=O)C1CC=CCC1,"InChI=1S/C7H10O2/c8-7(9)6-4-2-1-3-5-6/h1-2,6H,3-5H2,(H,8,9)",VUSWCWPCANWBFG-UHFFFAOYSA-N,?,234.5,104800
104805,4795-29-3,7202-43-9,NC[C@H]1CCCO1,"2-Furanmethanamine, tetrahydro-",(R)-(-)-Tetrahydrofurfurylamine,C5H11NO,23695,DTXSID00370134,NCC1CCCO1,"InChI=1S/C5H11NO/c6-4-5-2-1-3-7-5/h5H,1-4,6H2",YNOGYQAEJGADFJ-UHFFFAOYSA-N,?,153.0,104805
104810,4810-09-7,4810-09-7,CCCCC(C)C=C,"1-HEPTENE, 3-METHYL-",,,23700,DTXSID50871101,CCCCC(C)C=C,"InChI=1S/C8H16/c1-4-6-7-8(3)5-2/h5,8H,2,4,6-7H2,1,3H3",QDMFTFWKTYXBIW-UHFFFAOYSA-N,?,111.0,104810
104815,4877-93-4,4877-93-4,COc1ccccc1-c1ccccc1OC,"1,1'-BIPHENYL, 2,2'-DIMETHOXY-","2,2'-Dimethoxybiphenyl",C14H14O2,23704,DTXSID60346395,COc1ccccc1-c1ccccc1OC,"InChI=1S/C14H14O2/c1-15-13-9-5-3-7-11(13)12-8-4-6-10-14(12)16-2/h3-10H,1-2H3",VGMKUVCDINAAFC-UHFFFAOYSA-N,?,307.5,104815
104820,4897-84-1,4897-84-1,COC(=O)CCCBr,"BUTANOIC ACID, 4-BROMO-, METHYL ESTER",Methyl 4-bromobutyrate,methyl 4-bromobutanoate,23709,DTXSID50197651,COC(=O)CCCBr,"InChI=1S/C5H9BrO2/c1-8-5(7)3-2-4-6/h2-4H2,1H3",QAWFLJGZSZIZHO-UHFFFAOYSA-N,?,186.5,104820
104824,4914-91-4|4914-92-5|24910-63-2,4914-91-4|4914-92-5|NOCAS_871104,C/C=C(/C)\C(C)C,"2-PENTENE, 3,4-DIMETHYL-, (Z)-, 2-PENTENE, 3,4-DIMETHYL-, (E)-, 3,4-DIMETHYL-2-PENTENE",,,23713|23714|24440,DTXSID10879002|DTXSID70879003|DTXSID30871104,CC=C(C)C(C)C,"InChI=1S/C7H14/c1-5-7(4)6(2)3/h5-6H,1-4H3/b7-5+",PPBWEVVDSRKEIK-FNORWQNLSA-N,?,89.9333333333333,104824
104830,4926-78-7|6236-88-0,3728-56-1,CC1CCC(CC1)CC,"CYCLOHEXANE, 1-ETHYL-4-METHYL-, CIS-, CYCLOHEXANE, 1-ETHYL-4-METHYL-, TRANS-","Cyclohexane, 1-ethyl-4-methyl-",1-Ethyl-4-methylcyclohexane,23719|23894,DTXSID00190733,CC1CCC(CC1)CC,"InChI=1S/C9H18/c1-3-9-6-4-8(2)5-7-9/h8-9H,3-7H2,1-2H3",CYISMTMRBPPERU-UHFFFAOYSA-N,?,150.8,104830
104834,4957-14-6,4957-14-6,Cc1ccc(Cc2ccc(C)cc2)cc1,"BENZENE, 1,1'-METHYLENEBIS[4-METHYL-","Methane, di-p-tolyl-",1-methyl-4-[(4-methylphenyl)methyl]benzene,23723,DTXSID90197852,Cc1ccc(Cc2ccc(C)cc2)cc1,"InChI=1S/C15H16/c1-12-3-7-14(8-4-12)11-15-9-5-13(2)6-10-15/h3-10H,11H2,1-2H3",HZAWPPRBCALFRN-UHFFFAOYSA-N,?,286.0,104834
104838,4984-01-4,NOCAS_871109,CC(C)CCCC(C)C=C,"1-OCTENE, 3,7-DIMETHYL-",,,23727,DTXSID30871109,CC(C)CCCC(C)C=C,"InChI=1S/C10H20/c1-5-10(4)8-6-7-9(2)3/h5,9-10H,1,6-8H2,2-4H3",KSXTZYRIJKDCEA-UHFFFAOYSA-N,?,154.0,104838
104842,5026-76-6,11071-47-9,CC(C)CCCC=C,6-METHYL-1-HEPTENE,Isooctene,6-methylhept-1-ene,23731,DTXSID4029721,CC(C)CCCC=C,"InChI=1S/C8H16/c1-4-5-6-7-8(2)3/h4,8H,1,5-7H2,2-3H3",DFVOXRAAHOJJBN-UHFFFAOYSA-N,?,113.2,104842
104846,5077-67-8,5077-67-8,CCC(=O)CO,"2-Butanone, 1-hydroxy-","2-Butanone, 1-hydroxy-",1-Hydroxybutan-2-one,23735,DTXSID1063693,CCC(=O)CO,"InChI=1S/C4H8O2/c1-2-4(6)3-5/h5H,2-3H2,1H3",GFAZHVHNLUBROE-UHFFFAOYSA-N,?,160.0,104846
104851,5161-04-6,5161-04-6,Cc1ccc(CC(C)C)cc1,"BENZENE, 1-METHYL-4-(2-METHYLPROPYL)-","Benzene, 1-methyl-4-(2-methylpropyl)-",1-methyl-4-(2-methylpropyl)benzene,23740,DTXSID50199559,Cc1ccc(CC(C)C)cc1,"InChI=1S/C11H16/c1-9(2)8-11-6-4-10(3)5-7-11/h4-7,9H,8H2,1-3H3",VCGBZXLLPCGFQM-UHFFFAOYSA-N,?,196.0,104851
104855,5162-44-7,5162-44-7,C=CCCBr,4-BROMO-1-BUTENE,"1-Butene, 4-bromo-",4-Bromobut-1-ene,23744,DTXSID1063722,C=CCCBr,"InChI=1S/C4H7Br/c1-2-3-4-5/h2H,1,3-4H2",DMAYBPBPEUFIHJ-UHFFFAOYSA-N,?,98.5,104855
104861,5208-49-1,13837-63-3,C[C@@H]1C[C@@H]2[C@H](C=C1)C2(C)C,"4-CARENE, (1S,3R,6R)-(-)-",PUBCHEM_71351627,C10H16,23748,DTXSID80777086,CC1CC2C(C=C1)C2(C)C,"InChI=1S/C10H16/c1-7-4-5-8-9(6-7)10(8,2)3/h4-5,7-9H,6H2,1-3H3",LGNSZMLHOYDATP-UHFFFAOYSA-N,?,169.0,104861
104865,5258-50-4,NOCAS_871121,CC1CSCCC1,"2H-THIOPYRAN, TETRAHYDRO-3-METHYL-",,,23752,DTXSID50871121,CC1CSCCC1,"InChI=1S/C6H12S/c1-6-3-2-4-7-5-6/h6H,2-5H2,1H3",WTPRCAYZVQKROM-UHFFFAOYSA-N,?,158.0,104865
104869,5285-87-0,5285-87-0,N#CSc1ccccc1,PHENYLTHIOCYANATE,"Thiocyanic acid, phenyl ester",Thiocyanatobenzene,23756,DTXSID20200868,N#CSc1ccccc1,InChI=1S/C7H5NS/c8-6-9-7-4-2-1-3-5-7/h1-5H,YXCDJKQYFBEAOU-UHFFFAOYSA-N,?,232.5,104869
104873,5325-97-3,5325-97-3,C1CCCc2c3CCCCc3ccc21,"PHENANTHRENE, 1,2,3,4,5,6,7,8-OCTAHYDRO-","1,2,3,4,5,6,7,8-Octahydrophenanthrene","1,2,3,4,5,6,7,8-Octahydrophenanthrene",23760,DTXSID50201363,C1CCCc2c3CCCCc3ccc21,"InChI=1S/C14H18/c1-3-7-13-11(5-1)9-10-12-6-2-4-8-14(12)13/h9-10H,1-8H2",YSZLFGZFQTTZIQ-UHFFFAOYSA-N,?,295.0,104873
104877,5332-25-2,5332-25-2,Brc1cc2ccc[n]c2cc1,6-BROMOQUINOLINE,"Quinoline, 6-bromo-",6-Bromoquinoline,23764,DTXSID5063788,Brc1cc2ccc[n]c2cc1,InChI=1S/C9H6BrN/c10-8-3-4-9-7(6-8)2-1-5-11-9/h1-6H,IFIHYLCUKYCKRH-UHFFFAOYSA-N,?,281.0,104877
104881,5337-72-4,NOCAS_871123,CC1CCCC(C)C1O,"2,6-DIMETHYLCYCLOHEXANOL",,,23768,DTXSID70871123,CC1CCCC(C)C1O,"InChI=1S/C8H16O/c1-6-4-3-5-7(2)8(6)9/h6-9H,3-5H2,1-2H3",MOISVRZIQDQVPF-UHFFFAOYSA-N,?,176.0,104881
104886,5344-20-7,5344-20-7,CC(C)CCCN,4-Methyl-pentylamine,Isohexylamine,C6H15N,23772,DTXSID60277195,CC(C)CCCN,"InChI=1S/C6H15N/c1-6(2)4-3-5-7/h6H,3-5,7H2,1-2H3",QVIAMKXOQGCYCV-UHFFFAOYSA-N,?,125.0,104886
104890,5362-55-0,69143-05-1,CC(C)C=CCO,"2-PENTEN-1-OL, 4-METHYL-","2-Penten-1-ol, 4-methyl-, (2E)-",C6H12O,23776,DTXSID40336592,CC(C)C=CCO,"InChI=1S/C6H12O/c1-6(2)4-3-5-7/h3-4,6-7H,5H2,1-2H3/b4-3+",BRYMKDNCWBMHIF-ONEGZZNKSA-N,?,159.0,104890
104894,5390-71-6,NOCAS_871125,COCC(C)Cl,"PROPANE, 2-CHLORO-1-METHOXY-",2-Chloro-1-methoxypropane,C4H9ClO,23780,DTXSID90871125,COCC(C)Cl,"InChI=1S/C4H9ClO/c1-4(5)3-6-2/h4H,3H2,1-2H3",SIBFNWWZWOVJJH-UHFFFAOYSA-N,?,99.0,104894
104899,5396-38-3,5396-38-3,COc1ccc(cc1)C(C)(C)C,"Benzene, 1-(1,1-dimethylethyl)-4-methoxy-","Benzene, 1-(1,1-dimethylethyl)-4-methoxy-",1-tert-butyl-4-methoxybenzene,23785,DTXSID3063833,COc1ccc(cc1)C(C)(C)C,"InChI=1S/C11H16O/c1-11(2,3)9-5-7-10(12-4)8-6-9/h5-8H,1-4H3",MCUPBIBNSTXCPQ-UHFFFAOYSA-N,?,238.0,104899
104903,5398-10-7,5398-10-7,CCCCCCC(C(=O)OCC)C(=O)OCC,"PROPANEDIOIC ACID, HEXYL-, DIETHYL ESTER",Diethyl hexylmalonate,diethyl 2-hexylpropanedioate,23789,DTXSID80202282,CCCCCCC(C(=O)OCC)C(=O)OCC,"InChI=1S/C13H24O4/c1-4-7-8-9-10-11(12(14)16-5-2)13(15)17-6-3/h11H,4-10H2,1-3H3",HSHMTDVEKPAEGS-UHFFFAOYSA-N,?,269.0,104903
104907,5405-15-2,5405-15-2,Cc1ccc(cc1)NCc1ccccc1,Benzyl-p-tolyl-amine,N-Benzyl-4-toluidine,4-methyl-N-(phenylmethyl)aniline,23793,DTXSID10202376,Cc1ccc(cc1)NCc1ccccc1,"InChI=1S/C14H15N/c1-12-7-9-14(10-8-12)15-11-13-5-3-2-4-6-13/h2-10,15H,11H2,1H3",KEVOWRWHMCBERP-UHFFFAOYSA-N,?,319.0,104907
104911,5407-98-7,5407-98-7,O=C(C1CCC1)c1ccccc1,Cyclobutyl-phenyl-methanone,Cyclobutyl phenyl ketone,cyclobutyl(phenyl)methanone,23797,DTXSID1048201,O=C(C1CCC1)c1ccccc1,"InChI=1S/C11H12O/c12-11(10-7-4-8-10)9-5-2-1-3-6-9/h1-3,5-6,10H,4,7-8H2",MVEBDOSCXOQNAR-UHFFFAOYSA-N,?,260.0,104911
104915,5424-19-1,5424-19-1,O=C(c1c[n]ccc1)c1ccccc1,PHENYL-B-PYRIDYL KETONE,3-Benzoylpyridine,phenyl-pyridin-3-ylmethanone,23801,DTXSID90202591,O=C(c1c[n]ccc1)c1ccccc1,InChI=1S/C12H9NO/c14-12(10-5-2-1-3-6-10)11-7-4-8-13-9-11/h1-9H,RYMBAPVTUHZCNF-UHFFFAOYSA-N,?,307.0,104915
104919,5441-51-0,5441-51-0,CCC1CCC(=O)CC1,"CYCLOHEXANONE, 4-ETHYL-",4-Ethylcyclohexanone,4-ethylcyclohexan-1-one,23805,DTXSID20202807,CCC1CCC(=O)CC1,"InChI=1S/C8H14O/c1-2-7-3-5-8(9)6-4-7/h7H,2-6H2,1H3",OKSDJGWHKXFVME-UHFFFAOYSA-N,?,193.0,104919
104923,5451-85-4,5451-85-4,CCCCC(=O)OCCCCCCCC,Pentanoic acid octyl ester,Octyl valerate,octyl pentanoate,23809,DTXSID00202926,CCCCC(=O)OCCCCCCCC,"InChI=1S/C13H26O2/c1-3-5-7-8-9-10-12-15-13(14)11-6-4-2/h3-12H2,1-2H3",OUYCCOBIJYUMAK-UHFFFAOYSA-N,?,261.6,104923
104928,5455-24-3,5455-24-3,CCCC(=O)C(=O)CCC,"4,5-OCTANEDIONE","4,5-Octanedione","octane-4,5-dione",23813,DTXSID50202971,CCCC(=O)C(=O)CCC,"InChI=1S/C8H14O2/c1-3-5-7(9)8(10)6-4-2/h3-6H2,1-2H3",XYZAPOXYXNIBEU-UHFFFAOYSA-N,?,168.0,104928
104932,5470-02-0,5470-02-0,CCCN1CCCCC1,1-PROPYLPIPERIDINE,"Piperidine, 1-propyl-",1-Propylpiperidine,23817,DTXSID80203158,CCCN1CCCCC1,"InChI=1S/C8H17N/c1-2-6-9-7-4-3-5-8-9/h2-8H2,1H3",VTDIWMPYBAVEDY-UHFFFAOYSA-N,?,151.5,104932
104938,5518-25-2,5518-25-2,CC[B]CC |^1:2|,DIETHYLBORANE,Diethylboron,C4H10B,23822,DTXSID90431001,CCBCC,"InChI=1S/C4H11B/c1-3-5-4-2/h5H,3-4H2,1-2H3",FAFYLCKQPJOORN-UHFFFAOYSA-N,?,112.0,104938
104942,5589-96-8,5589-96-8,OC(=O)C(Cl)Br,DL-BROMOCHLOROACETIC ACID,Bromochloroacetic acid,bromo(chloro)acetic acid,23826,DTXSID4024642,OC(=O)C(Cl)Br,"InChI=1S/C2H2BrClO2/c3-1(4)2(5)6/h1H,(H,5,6)",GEHJBWKLJVFKPS-UHFFFAOYSA-N,?,215.0,104942
104946,5666-21-7,34825-70-2,CCCNCC=C,ALLYLPROPYLAMINE,,,23830,DTXSID40336451,CCCNCC=C,"InChI=1S/C6H13N/c1-3-5-7-6-4-2/h3,7H,1,4-6H2,2H3",HUEPADWXXGLLSW-UHFFFAOYSA-N,?,112.0,104946
104950,5683-33-0,5683-33-0,CN(C)c1cccc[n]1,2-DIMETHYLAMINOPYRIDINE,2-Dimethylaminopyridine,"N,N-dimethylpyridin-2-amine",23834,DTXSID9022231,CN(C)c1cccc[n]1,"InChI=1S/C7H10N2/c1-9(2)7-5-3-4-6-8-7/h3-6H,1-2H3",PSHKMPUSSFXUIA-UHFFFAOYSA-N,?,196.0,104950
104954,5715-23-1,NOCAS_871143,CC1CC(O)CCC1C,"3,4-Dimethyl-cyclohexanol",,,23838,DTXSID70871143,CC1CC(O)CCC1C,"InChI=1S/C8H16O/c1-6-3-4-8(9)5-7(6)2/h6-9H,3-5H2,1-2H3",ZBAXJUPCYVIBSP-UHFFFAOYSA-N,?,189.0,104954
104959,5781-53-3,5781-53-3,COC(=O)C(=O)Cl,"Acetic acid, chlorooxo-, methyl ester","Acetic acid, chlorooxo-, methyl ester",methyl 2-chloro-2-oxoacetate,23842,DTXSID9064003,COC(=O)C(=O)Cl,InChI=1S/C3H3ClO3/c1-7-3(6)2(4)5/h1H3,ZXUQEPZWVQIOJE-UHFFFAOYSA-N,?,119.0,104959
104964,5814-85-7,5814-85-7,CC(Cc1ccccc1)c1ccccc1,"1-METHYL-1,2-DIPHENYLETHANE",,,23847,DTXSID70871148,CC(Cc1ccccc1)c1ccccc1,"InChI=1S/C15H16/c1-13(15-10-6-3-7-11-15)12-14-8-4-2-5-9-14/h2-11,13H,12H2,1H3",XLWCIHPMASUXPI-UHFFFAOYSA-N,?,280.5,104964
104968,5870-61-1,5870-61-1,ClC(Cl)=CBr,"2-Bromo-1,1-dichloro-ethene","2-Bromo-1,1-dichloroethylene","2-bromo-1,1-dichloroethene",23851,DTXSID50207401,ClC(Cl)=CBr,InChI=1S/C2HBrCl2/c3-1-2(4)5/h1H,OEKZZIRTAIOPIP-UHFFFAOYSA-N,?,107.5,104968
104972,5877-58-7,NOCAS_871150,Cc1cc(ccc1)N=Cc1ccccc1,Benzylidene-m-tolyl-amine,,,23855,DTXSID40871150,Cc1cc(ccc1)N=Cc1ccccc1,"InChI=1S/C14H13N/c1-12-6-5-9-14(10-12)15-11-13-7-3-2-4-8-13/h2-11H,1H3/b15-11+",RAMVBCXRKUNVQT-RVDMUPIBSA-N,?,315.0,104972
104976,5911-04-6,5911-04-6,CCCCCCC(C)CC,"NONANE, 3-METHYL-",,,23859,DTXSID70863649,CCCCCCC(C)CC,"InChI=1S/C10H22/c1-4-6-7-8-9-10(3)5-2/h10H,4-9H2,1-3H3",PLZDDPSCZHRBOY-UHFFFAOYSA-N,?,167.9,104976
104983,6001-87-2,6001-87-2,COC(=O)CCCl,"PROPANOIC ACID, 3-CHLORO-, METHYL ESTER",Methyl 3-chloropropionate,Methyl 3-chloropropanoate,23866,DTXSID10208717,COC(=O)CCCl,"InChI=1S/C4H7ClO2/c1-7-4(6)2-3-5/h2-3H2,1H3",GZGJIACHBCQSPC-UHFFFAOYSA-N,?,156.0,104983
104987,6012-97-1,6012-97-1,Clc1c(Cl)[s]c(Cl)c1Cl,Tetrachlorothiophene,Tetrachlorothiophene,tetrachlorothiophene,23870,DTXSID5042451,Clc1c(Cl)[s]c(Cl)c1Cl,InChI=1S/C4Cl4S/c5-1-2(6)4(8)9-3(1)7,WZXXZHONLFRKGG-UHFFFAOYSA-N,?,233.4,104987
104991,6064-63-7,NOCAS_863686,CCCCC(O)C(O)=O,"HEXANOIC ACID, 2-HYDROXY-",,,23874,DTXSID90863686,CCCCC(O)C(O)=O,"InChI=1S/C6H12O3/c1-2-3-4-5(7)6(8)9/h5,7H,2-4H2,1H3,(H,8,9)",NYHNVHGFPZAZGA-UHFFFAOYSA-N,?,305.0,104991
104996,6111-61-1,NOCAS_871152,CCC(O)C(Cl)(Cl)Cl,"2-Butanol, 1,1,1-trichloro-",,,23879,DTXSID60871152,CCC(O)C(Cl)(Cl)Cl,"InChI=1S/C4H7Cl3O/c1-2-3(8)4(5,6)7/h3,8H,2H2,1H3",MJFSFJZFTQSCGW-UHFFFAOYSA-N,?,171.0,104996
105001,6135-29-1,NOCAS_871153,O=C(OC(Cl)(Cl)Cl)C(Cl)(Cl)Cl,TRICHLOROMETHYL TRICHLOROACETATE,,,23883,DTXSID20871153,O=C(OC(Cl)(Cl)Cl)C(Cl)(Cl)Cl,"InChI=1S/C3Cl6O2/c4-2(5,6)1(10)11-3(7,8)9",YYWRWVLWCGOORG-UHFFFAOYSA-N,?,191.5,105001
105005,6161-50-8,6161-50-8,COc1cc(ccc1)-c1cc(ccc1)OC,"1,1'-BIPHENYL, 3,3'-DIMETHOXY-","3,3'-Dimethoxy-1,1'-biphenyl",1-methoxy-3-(3-methoxyphenyl)benzene,23887,DTXSID40210626,COc1cc(ccc1)-c1cc(ccc1)OC,"InChI=1S/C14H14O2/c1-15-13-7-3-5-11(9-13)12-6-4-8-14(10-12)16-2/h3-10H,1-2H3",UCHNVSDXSPIKRG-UHFFFAOYSA-N,?,328.0,105005
105010,6214-28-4,6213-90-7,C/C(/Cl)=C/C(O)=O,3-Chlorocrotonic acid,"2-Butenoic acid, 3-chloro-",C4H5ClO2,23891,DTXSID70349115,CC(Cl)=CC(O)=O,"InChI=1S/C4H5ClO2/c1-3(5)2-4(6)7/h2H,1H3,(H,6,7)/b3-2-",XBOTUWGQYMHUFO-IHWYPQMZSA-N,?,195.0,105010
105015,6269-92-7,NOCAS_871158,CCCCCCC(Br)CBr,"OCTANE, 1,2-DIBROMO-","1,2-Dibromooctane",C8H16Br2,23896,DTXSID20871158,CCCCCCC(Br)CBr,"InChI=1S/C8H16Br2/c1-2-3-4-5-6-8(10)7-9/h8H,2-7H2,1H3",BJJLJKYBNCPTQS-UHFFFAOYSA-N,?,241.0,105015
105019,6280-96-2,6280-96-2,CCCOc1ccccc1O,2-Propoxy-phenol,o-Propoxyphenol,2-Propoxyphenol,23900,DTXSID90211901,CCCOc1ccccc1O,"InChI=1S/C9H12O2/c1-2-7-11-9-6-4-3-5-8(9)10/h3-6,10H,2,7H2,1H3",JFSVGKRARHIICJ-UHFFFAOYSA-N,?,227.0,105019
105024,6292-82-6,NOCAS_871159,CC1CC(C)NC(C)(C)C1,"2,2,4,6-Tetramethyl-piperidine",,,23905,DTXSID80871159,CC1CC(C)NC(C)(C)C1,"InChI=1S/C9H19N/c1-7-5-8(2)10-9(3,4)6-7/h7-8,10H,5-6H2,1-4H3",NGBCPOUXXDBLMT-UHFFFAOYSA-N,?,156.0,105024
105028,6315-96-4,6315-96-4,CCC(=O)c1cc2ccccc2cc1,Ethyl 2-naphthyl ketone,1-(2-Naphthyl)propan-1-one,1-naphthalen-2-ylpropan-1-one,23909,DTXSID90212498,CCC(=O)c1cc2ccccc2cc1,"InChI=1S/C13H12O/c1-2-13(14)12-8-7-10-5-3-4-6-11(10)9-12/h3-9H,2H2,1H3",QLYPHTMKMPIJNG-UHFFFAOYSA-N,?,313.0,105028
105032,6341-97-5,NOCAS_872276,CC(=O)Oc1ccc(Cl)cc1Cl,"PHENOL, 2,4-DICHLORO-, ACETATE",,,23913,DTXSID70872276,CC(=O)Oc1ccc(Cl)cc1Cl,"InChI=1S/C8H6Cl2O2/c1-5(11)12-8-3-2-6(9)4-7(8)10/h2-4H,1H3",KGXUYVOKSRCTEK-UHFFFAOYSA-N,?,244.5,105032
105036,6361-23-5,6361-23-5,O=Cc1cc(Cl)ccc1Cl,"2,5-Dichloro-benzaldehyde","2,5-Dichlorobenzaldehyde","2,5-Dichlorobenzaldehyde",23917,DTXSID30212992,O=Cc1cc(Cl)ccc1Cl,InChI=1S/C7H4Cl2O/c8-6-1-2-7(9)5(3-6)4-10/h1-4H,BUXHYMZMVMNDMG-UHFFFAOYSA-N,?,232.0,105036
105041,6419-19-8,6419-19-8,OP(O)(=O)CN(CP(O)(O)=O)CP(O)(O)=O,(Nitrilotris(methylene))triphosphonic acid,Aminotrimethylene phosphonic acid,(nitrilotrimethanediyl)tris(phosphonic acid),23922,DTXSID2027624,OP(O)(=O)CN(CP(O)(O)=O)CP(O)(O)=O,"InChI=1S/C3H12NO9P3/c5-14(6,7)1-4(2-15(8,9)10)3-16(11,12)13/h1-3H2,(H2,5,6,7)(H2,8,9,10)(H2,11,12,13)",YDONNITUKPKTIG-UHFFFAOYSA-N,?,480.0,105041
105047,6609-56-9,6609-56-9,COc1ccccc1C#N,2-Methoxy-benzonitrile,2-Methoxybenzonitrile,2-Methoxybenzonitrile,23927,DTXSID10216291,COc1ccccc1C#N,"InChI=1S/C8H7NO/c1-10-8-5-3-2-4-7(8)6-9/h2-5H,1H3",FSTPMFASNVISBU-UHFFFAOYSA-N,?,255.5,105047
105051,6628-04-2,6628-04-2,Cc1cc(N)c2ccccc2[n]1,2-Methyl-quinolin-4-ylamine,4-Amino-2-methylquinoline,2-methylquinolin-4-amine,23931,DTXSID50216477,Cc1cc(N)c2ccccc2[n]1,"InChI=1S/C10H10N2/c1-7-6-9(11)8-4-2-3-5-10(8)12-7/h2-6H,1H3,(H2,11,12)",COCFIBRMFPWUDW-UHFFFAOYSA-N,?,333.0,105051
105055,6630-33-7,6630-33-7,O=Cc1ccccc1Br,"Benzaldehyde, 2-bromo-","Benzaldehyde, 2-bromo-",2-Bromobenzaldehyde,23935,DTXSID8064430,O=Cc1ccccc1Br,InChI=1S/C7H5BrO/c8-7-4-2-1-3-6(7)5-9/h1-5H,NDOPHXWIAZIXPR-UHFFFAOYSA-N,?,230.0,105055
105060,6709-22-4,NOCAS_871169,CC1=CCC(C(O)=O)C1(C)C,"2,2,3-Trimethyl-cyclopent-3-enecarboxylic acid",,,23940,DTXSID30871169,CC1=CCC(C(O)=O)C1(C)C,"InChI=1S/C9H14O2/c1-6-4-5-7(8(10)11)9(6,2)3/h4,7H,5H2,1-3H3,(H,10,11)",ZRVJUIDXQSYDBJ-UHFFFAOYSA-N,?,241.5,105060
105064,6739-34-0,6739-34-0,CCCOC(=O)C1CCCCC1,Cyclohexanecarboxylic acid propyl ester,Propyl cyclohexanecarboxylate,Propyl cyclohexanecarboxylate,23944,DTXSID80217750,CCCOC(=O)C1CCCCC1,"InChI=1S/C10H18O2/c1-2-8-12-10(11)9-6-4-3-5-7-9/h9H,2-8H2,1H3",UBEVLTHYAFYOEU-UHFFFAOYSA-N,?,215.5,105064
105068,6781-98-2,6781-98-2,Cc1cccc(C)c1Cl,"BENZENE, 2-CHLORO-1,3-DIMETHYL-","2-Chloro-1,3-dimethylbenzene","2-chloro-1,3-dimethylbenzene",23948,DTXSID40218061,Cc1cccc(C)c1Cl,"InChI=1S/C8H9Cl/c1-6-4-3-5-7(2)8(6)9/h3-5H,1-2H3",VDXLAYAQGYCQEO-UHFFFAOYSA-N,?,186.0,105068
105072,6789-94-2,NOCAS_871170,CCN1CC(N)CCC1,"3-PIPERIDINAMINE, 1-ETHYL-",,,23952,DTXSID40871170,CCN1CC(N)CCC1,"InChI=1S/C7H16N2/c1-2-9-5-3-4-7(8)6-9/h7H,2-6,8H2,1H3",WAKUKXKZEXFXJP-UHFFFAOYSA-N,?,155.0,105072
105076,6836-38-0,NOCAS_871172,CCCCCCC(O)CCCCC,6-DODECANOL,,,23956,DTXSID60871172,CCCCCCC(O)CCCCC,"InChI=1S/C12H26O/c1-3-5-7-9-11-12(13)10-8-6-4-2/h12-13H,3-11H2,1-2H3",LRBBIFXICMMTOW-UHFFFAOYSA-N,?,225.0,105076
105081,6921-35-3,6921-35-3,CC1(C)COC1,"OXETANE, 3,3-DIMETHYL-","Oxetane, 3,3-dimethyl- (9CI)","3,3-Dimethyloxetane",23961,DTXSID30219244,CC1(C)COC1,"InChI=1S/C5H10O/c1-5(2)3-6-4-5/h3-4H2,1-2H3",RVGLUKRYMXEQAH-UHFFFAOYSA-N,?,80.6,105081
105085,6940-78-9,6940-78-9,ClCCCCBr,"Butane, 1-bromo-4-chloro-",1-Bromo-4-chlorobutane,1-bromo-4-chlorobutane,23965,DTXSID1049350,ClCCCCBr,InChI=1S/C4H8BrCl/c5-3-1-2-4-6/h1-4H2,NIDSRGCVYOEDFW-UHFFFAOYSA-N,?,175.0,105085
105089,6971-51-3,6971-51-3,COc1cccc(CO)c1,(3-Methoxy-phenyl)-methanol,3-Methoxybenzyl alcohol,,23969,DTXSID20220001,COc1cccc(CO)c1,"InChI=1S/C8H10O2/c1-10-8-4-2-3-7(5-8)6-9/h2-5,9H,6H2,1H3",IIGNZLVHOZEOPV-UHFFFAOYSA-N,?,252.0,105089
105093,6975-98-0,6975-98-0,CCCCCCCCC(C)C,2-METHYLDECANE,2-Methyldecane,C11H24,23973,DTXSID2058677,CCCCCCCCC(C)C,"InChI=1S/C11H24/c1-4-5-6-7-8-9-10-11(2)3/h11H,4-10H2,1-3H3",CNPVJWYWYZMPDS-UHFFFAOYSA-N,?,189.3,105093
105099,7005-47-2,7005-47-2,CN(C)C(C)(C)CO,DMAMP,2-(Dimethylamino)-2-methylpropan-1-ol,2-(dimethylamino)-2-methylpropan-1-ol,23978,DTXSID6044721,CN(C)C(C)(C)CO,"InChI=1S/C6H15NO/c1-6(2,5-8)7(3)4/h8H,5H2,1-4H3",XRIBIDPMFSLGFS-UHFFFAOYSA-N,?,160.0,105099
105103,7058-01-7,NOCAS_871939,CC(CC)C1CCCCC1,S-BUTYLCYCLOHEXANE,,,23982,DTXSID00871939,CC(CC)C1CCCCC1,"InChI=1S/C10H20/c1-3-9(2)10-7-5-4-6-8-10/h9-10H,3-8H2,1-2H3",QTYARKOMFKRPSY-UHFFFAOYSA-N,?,179.3,105103
105107,7094-26-0,NOCAS_871181,CC1CCCCC1(C)C,"CYCLOHEXANE, 1,1,2-TRIMETHYL-",,,23986,DTXSID50871181,CC1CCCCC1(C)C,"InChI=1S/C9H18/c1-8-6-4-5-7-9(8,2)3/h8H,4-7H2,1-3H3",MEBONNVPKOBPEA-UHFFFAOYSA-N,?,145.2,105107
105111,7116-86-1,7116-86-1,CC(C)(C)CCC=C,"1-Hexene, 5,5-dimethyl-","1-Hexene, 5,5-dimethyl-","5,5-Dimethylhex-1-ene",23990,DTXSID8064565,CC(C)(C)CCC=C,"InChI=1S/C8H16/c1-5-6-7-8(2,3)4/h5H,1,6-7H2,2-4H3",KZJIOVQKSAOPOP-UHFFFAOYSA-N,?,104.0,105111
105115,7145-20-2,7145-20-2,CC(C)=C(C)CCC,"2,3-DIMETHYL-2-HEXENE","2,3-Dimethylhex-2-ene","2,3-Dimethylhex-2-ene",23994,DTXSID60221638,CC(C)=C(C)CCC,"InChI=1S/C8H16/c1-5-6-8(4)7(2)3/h5-6H2,1-4H3",RGYAVZGBAJFMIZ-UHFFFAOYSA-N,?,121.8,105115
105119,7152-15-0,7152-15-0,CCOC(=O)CC(=O)C(C)C,"PENTANOIC ACID, 4-METHYL-3-OXO-, ETHYL ESTER",Ethyl isobutyrylacetate,Ethyl 4-methyl-3-oxopentanoate,23998,DTXSID00221758,CCOC(=O)CC(=O)C(C)C,"InChI=1S/C8H14O3/c1-4-11-8(10)5-7(9)6(2)3/h6H,4-5H2,1-3H3",XCLDSQRVMMXWMS-UHFFFAOYSA-N,?,173.0,105119
105123,7154-80-5,NOCAS_871185,CC(CC(C)(C)CC)CC,"HEPTANE, 3,3,5-TRIMETHYL-",,,24002,DTXSID90871185,CC(CC(C)(C)CC)CC,"InChI=1S/C10H22/c1-6-9(3)8-10(4,5)7-2/h9H,6-8H2,1-5H3",VRVRZZWPKABUOE-UHFFFAOYSA-N,?,155.7,105123
105127,7194-85-6,7194-85-6,CCCCCCCCCCCCCCCCCCCCCCCCCCCCCCCCCCCCCC,N-OCTATRIACONTANE,Octatriacontane,Octatriacontane,24006,DTXSID5064592,CCCCCCCCCCCCCCCCCCCCCCCCCCCCCCCCCCCCCC,"InChI=1S/C38H78/c1-3-5-7-9-11-13-15-17-19-21-23-25-27-29-31-33-35-37-38-36-34-32-30-28-26-24-22-20-18-16-14-12-10-8-6-4-2/h3-38H2,1-2H3",BVKCQBBZBGYNOP-UHFFFAOYSA-N,?,512.0,105127
105131,7239-24-9,7239-24-9,CC(C)CN(C)C,"1-Propanamine, N,N,2-trimethyl-","1-Propanamine, N,N,2-trimethyl-","N,N,2-trimethylpropan-1-amine",24010,DTXSID7064601,CC(C)CN(C)C,"InChI=1S/C6H15N/c1-6(2)5-7(3)4/h6H,5H2,1-4H3",GDHRQDYGUDOEIZ-UHFFFAOYSA-N,?,80.5,105131
105135,7307-55-3,7307-55-3,CCCCCCCCCCCN,N-UNDECYLAMIN,Undecylamine,undecan-1-amine,24014,DTXSID3022249,CCCCCCCCCCCN,"InChI=1S/C11H25N/c1-2-3-4-5-6-7-8-9-10-11-12/h2-12H2,1H3",QFKMMXYLAPZKIB-UHFFFAOYSA-N,?,242.0,105135