ChemID,source_casrn,CAS,SMILES,NAME,preferred_name,iupac,MPID,dsstox_substance_id,Canonical_QSARr,InChI_Code_QSARr,InChI Key_QSARr,Salt_Solvent,BP,ID
101026,109-69-3,109-69-3,CCCCCl,1-CHLOROBUTANE,1-Chlorobutane,1-chlorobutane,20091,DTXSID8020206,CCCCCl,"InChI=1S/C4H9Cl/c1-2-3-4-5/h2-4H2,1H3",VFWCMGCRMGJXDK-UHFFFAOYSA-N,?,78.6,101026
101030,109-75-1,109-75-1,C=CCC#N,3-BUTENENITRILE,Allyl cyanide,but-3-enenitrile,20095,DTXSID6021905,C=CCC#N,"InChI=1S/C4H5N/c1-2-3-4-5/h2H,1,3H2",SJNALLRHIVGIBI-UHFFFAOYSA-N,?,119.0,101030
101034,109-79-5,109-79-5,CCCCS,BUTANETHIOL,1-Butanethiol,butane-1-thiol,20099,DTXSID6026824,CCCCS,"InChI=1S/C4H10S/c1-2-3-4-5/h5H,2-4H2,1H3",WQAQPCDUOCURKW-UHFFFAOYSA-N,?,98.5,101034
101038,109-84-2,109-84-2,NNCCO,"Ethanol, 2-hydrazino-",2-Hydroxyethylhydrazine,2-hydrazinylethanol,20103,DTXSID1020728,NNCCO,"InChI=1S/C2H8N2O/c3-4-1-2-5/h4-5H,1-3H2",GBHCABUWWQUMAJ-UHFFFAOYSA-N,?,219.0,101038
101042,109-89-7,109-89-7,CCNCC,DIETHYLAMINE,Diethylamine,N-ethylethanamine,20107,DTXSID6021909,CCNCC,"InChI=1S/C4H11N/c1-3-5-4-2/h5H,3-4H2,1-2H3",HPNMFZURTQLUMO-UHFFFAOYSA-N,?,55.5,101042
101046,109-94-4,109-94-4,CCOC=O,ETHYL FORMATE,Ethyl formate,ethyl formate,20111,DTXSID6040117,CCOC=O,"InChI=1S/C3H6O2/c1-2-5-3-4/h3H,2H2,1H3",WBJINCZRORDGAQ-UHFFFAOYSA-N,?,54.4,101046
101050,109-98-8,NOCAS_870460,C1CNN=C1,"4,5-DIHYDRO-1H-PYRAZOLE",,,20115,DTXSID80870460,C1CNN=C1,"InChI=1S/C3H6N2/c1-2-4-5-3-1/h2,5H,1,3H2",MCGBIXXDQFWVDW-UHFFFAOYSA-N,?,144.0,101050
101054,110-02-1,110-02-1,c1ccc[s]1,THIOPHENE,Thiophene,thiophene,20119,DTXSID8026145,c1ccc[s]1,InChI=1S/C4H4S/c1-2-4-5-3-1/h1-4H,YTPLMLYBLZKORZ-UHFFFAOYSA-N,?,84.0,101054
101058,110-13-4,110-13-4,CC(=O)CCC(C)=O,"2,5-HEXANEDIONE","2,5-Hexanedione","hexane-2,5-dione",20123,DTXSID8030138,CC(=O)CCC(C)=O,"InChI=1S/C6H10O2/c1-5(7)3-4-6(2)8/h3-4H2,1-2H3",OJVAMHKKJGICOG-UHFFFAOYSA-N,?,194.0,101058
101062,110-39-4,110-39-4,CCCCCCCCOC(=O)CCC,"Butanoic acid, octyl ester","Butanoic acid, octyl ester",Octyl butanoate,20127,DTXSID9059387,CCCCCCCCOC(=O)CCC,"InChI=1S/C12H24O2/c1-3-5-6-7-8-9-11-14-12(13)10-4-2/h3-11H2,1-2H3",PWLNAUNEAKQYLH-UHFFFAOYSA-N,?,244.1,101062
101066,110-43-0,110-43-0,CCCCCC(C)=O,2-HEPTANONE,2-Heptanone,heptan-2-one,20131,DTXSID5021916,CCCCCC(C)=O,"InChI=1S/C7H14O/c1-3-4-5-6-7(2)8/h3-6H2,1-2H3",CATSNJVOTSVZJV-UHFFFAOYSA-N,?,151.0,101066
101070,110-52-1,110-52-1,BrCCCCBr,"1,4-DIBROMOBUTANE","1,4-Dibromobutane","1,4-dibromobutane",20135,DTXSID5044364,BrCCCCBr,InChI=1S/C4H8Br2/c5-3-1-2-4-6/h1-4H2,ULTHEAFYOOPTTB-UHFFFAOYSA-N,?,197.0,101070
101074,110-57-6|764-41-0|1476-11-5,110-57-6|764-41-0|1476-11-5,ClC/C=C/CCl,"1,4-DICHLORO-2-BUTENE(TRANS), 1,4-DICHLORO-2-BUTENE, 1,4-DICHLORO-2-BUTENE(CIS)","(2E)-1,4-Dichlorobut-2-ene","(2E)-1,4-dichlorobut-2-ene",20139|22275|22765,DTXSID6020434|DTXSID9027310|DTXSID3027405,ClCC=CCCl,"InChI=1S/C4H6Cl2/c5-3-1-2-4-6/h1-2H,3-4H2/b2-1+",FQDIANVAWVHZIR-OWOJBTEDSA-N,?,155.3,101074
101078,110-61-2,110-61-2,N#CCCC#N,SUCCINONITRILE,Succinonitrile,butanedinitrile,20143,DTXSID9026059,N#CCCC#N,InChI=1S/C4H4N2/c5-3-1-2-4-6/h1-2H2,IAHFWCOBPZCAEA-UHFFFAOYSA-N,?,266.0,101078
101082,110-66-7,110-66-7,CCCCCS,1-PENTANETHIOL,Pentyl mercaptan,pentane-1-thiol,20147,DTXSID9041605,CCCCCS,"InChI=1S/C5H12S/c1-2-3-4-5-6/h6H,2-5H2,1H3",ZRKMQKLGEQPLNS-UHFFFAOYSA-N,?,126.6,101082
101086,110-70-3,110-70-3,CNCCNC,"1,2-ETHANEDIAMINE, N,N'-DIMETHYL-","N,N'-Dimethylethane-1,2-diamine","N,N'-dimethylethane-1,2-diamine",20151,DTXSID4058730,CNCCNC,"InChI=1S/C4H12N2/c1-5-3-4-6-2/h5-6H,3-4H2,1-2H3",KVKFRMCSXWQSNT-UHFFFAOYSA-N,?,120.0,101086
101090,110-74-7,110-74-7,CCCOC=O,PROPYL FORMATE,"Formic acid, propyl ester",PROPYL FORMATE,20155,DTXSID3059391,CCCOC=O,"InChI=1S/C4H8O2/c1-2-3-6-4-5/h4H,2-3H2,1H3",KFNNIILCVOLYIR-UHFFFAOYSA-N,?,80.9,101090
101094,110-78-1,110-78-1,CCCN=C=O,"Propane, 1-isocyanato-",Propyl isocyanate,1-isocyanatopropane,20159,DTXSID5051571,CCCN=C=O,"InChI=1S/C4H7NO/c1-2-3-5-4-6/h2-3H2,1H3",OQURWGJAWSLGQG-UHFFFAOYSA-N,?,83.5,101094
101098,110-83-8,110-83-8,C1CCCC=C1,CYCLOHEXENE,Cyclohexene,cyclohexene,20163,DTXSID9038717,C1CCCC=C1,"InChI=1S/C6H10/c1-2-4-6-5-3-1/h1-2H,3-6H2",HGCIXCUEYOPUTN-UHFFFAOYSA-N,?,82.9,101098
101102,110-88-3,110-88-3,C1OCOCO1,"1,3,5-TRIOXANE","1,3,5-Trioxane","1,3,5-trioxane",20167,DTXSID4021925,C1OCOCO1,InChI=1S/C3H6O3/c1-4-2-6-3-5-1/h1-3H2,BGJSXRVXTHVRSN-UHFFFAOYSA-N,?,114.5,101102
101106,110-94-1,110-94-1,OC(=O)CCCC(O)=O,PENTANEDIOC ACID,Pentanedioic acid,pentanedioic acid,20171,DTXSID2021654,OC(=O)CCCC(O)=O,"InChI=1S/C5H8O4/c6-4(7)2-1-3-5(8)9/h1-3H2,(H,6,7)(H,8,9)",JFCQEDHGNNZCLN-UHFFFAOYSA-N,?,303.0,101106
101110,110-98-5,110-98-5,CC(O)COCC(C)O,"1,1'-Oxydi-2-propanol","1,1'-Oxybis-2-propanol","1,1'-oxydipropan-2-ol",20175,DTXSID7026863,CC(O)COCC(C)O,"InChI=1S/C6H14O3/c1-5(7)3-9-4-6(2)8/h5-8H,3-4H2,1-2H3",AZUXKVXMJOIAOF-UHFFFAOYSA-N,?,232.8,101110
101114,111-13-7,111-13-7,CCCCCCC(C)=O,2-OCTANONE,2-Octanone,octan-2-one,20179,DTXSID4021927,CCCCCCC(C)=O,"InChI=1S/C8H16O/c1-3-4-5-6-7-8(2)9/h3-7H2,1-2H3",ZPVFWPFBNIEHGJ-UHFFFAOYSA-N,?,172.5,101114
101118,111-18-2,111-18-2,CN(C)CCCCCCN(C)C,"1,6-Hexanediamine, N,N,N',N'-tetramethyl-","N,N,N',N`-Tetramethylhexanediamine",C10H24N2,20183,DTXSID5033701,CN(C)CCCCCCN(C)C,"InChI=1S/C10H24N2/c1-11(2)9-7-5-6-8-10-12(3)4/h5-10H2,1-4H3",TXXWBTOATXBWDR-UHFFFAOYSA-N,?,209.5,101118
101122,111-26-2,111-26-2,CCCCCCN,N-HEXYLAMINE,Hexylamine,hexan-1-amine,20187,DTXSID3021930,CCCCCCN,"InChI=1S/C6H15N/c1-2-3-4-5-6-7/h2-7H2,1H3",BMVXCPBXGZKUPN-UHFFFAOYSA-N,?,132.8,101122
101126,111-34-2,111-34-2,CCCCOC=C,BUTYL VINYL ETHER,Butyl vinyl ether,butyl vinyl ether,20191,DTXSID5051575,CCCCOC=C,"InChI=1S/C6H12O/c1-3-5-6-7-4-2/h4H,2-3,5-6H2,1H3",UZKWTJUDCOPSNM-UHFFFAOYSA-N,?,94.0,101126
101130,111-42-2,111-42-2,OCCNCCO,DIETHANOLAMINE,Diethanolamine,"2,2'-iminodiethanol",20195,DTXSID3021932,OCCNCCO,"InChI=1S/C4H11NO2/c6-3-1-5-2-4-7/h5-7H,1-4H2",ZBCBWPMODOFKDW-UHFFFAOYSA-N,?,268.8,101130
101134,111-46-6,111-46-6,OCCOCCO,DIETHYLENE GLYCOL,Diethylene glycol,"2,2'-oxydiethanol",20199,DTXSID8020462,OCCOCCO,"InChI=1S/C4H10O3/c5-1-3-7-4-2-6/h5-6H,1-4H2",MTHSVFCYNBDYFN-UHFFFAOYSA-N,?,245.8,101134
101138,111-51-3,111-51-3,CN(C)CCCCN(C)C,"1,4-Butanediamine, N,N,N',N'-tetramethyl-","1,4-Butanediamine, N,N,N',N'-tetramethyl-","N,N,N',N'-tetramethylbutane-1,4-diamine",20203,DTXSID0059403,CN(C)CCCCN(C)C,"InChI=1S/C8H20N2/c1-9(2)7-5-6-8-10(3)4/h5-8H2,1-4H3",VEAZEPMQWHPHAG-UHFFFAOYSA-N,?,168.0,101138
101142,111-66-0,111-66-0,CCCCCCC=C,1-OCTENE,1-Octene,oct-1-ene,20207,DTXSID6025804,CCCCCCC=C,"InChI=1S/C8H16/c1-3-5-7-8-6-4-2/h3H,1,4-8H2,2H3",KWKAKUADMBZCLK-UHFFFAOYSA-N,?,121.2,101142
101146,111-70-6,111-70-6,CCCCCCCO,1-HEPTANOL,1-Heptanol,heptan-1-ol,20211,DTXSID8021937,CCCCCCCO,"InChI=1S/C7H16O/c1-2-3-4-5-6-7-8/h8H,2-7H2,1H3",BBMCTIGTTCKYKF-UHFFFAOYSA-N,?,176.4,101146
101150,111-76-2,111-76-2,CCCCOCCO,2-BUTOXYETHANOL,2-Butoxyethanol,C6H14O2,20215,DTXSID1024097,CCCCOCCO,"InChI=1S/C6H14O2/c1-2-3-5-8-6-4-7/h7H,2-6H2,1H3",POAOYUHQDCAZBD-UHFFFAOYSA-N,?,168.4,101150
101154,111-82-0,111-82-0,CCCCCCCCCCCC(=O)OC,METHYL LAURATE,Methyl dodecanoate,methyl dodecanoate,20219,DTXSID5026889,CCCCCCCCCCCC(=O)OC,"InChI=1S/C13H26O2/c1-3-4-5-6-7-8-9-10-11-12-13(14)15-2/h3-12H2,1-2H3",UQDUPQYQJKYHQI-UHFFFAOYSA-N,?,267.0,101154
101158,111-86-4,111-86-4,CCCCCCCCN,N-OCTYLAMINE,1-Octanamine,octan-1-amine,20223,DTXSID8021939,CCCCCCCCN,"InChI=1S/C8H19N/c1-2-3-4-5-6-7-8-9/h2-9H2,1H3",IOQPZZOEVPZRBK-UHFFFAOYSA-N,?,179.6,101158
101162,111-91-1,111-91-1,ClCCOCOCCCl,BIS(2-CHLOROETHOXY)METHANE,Bis(2-chloroethoxy)methane,1-chloro-2-[(2-chloroethoxy)methoxy]ethane,20227,DTXSID4023917,ClCCOCOCCCl,InChI=1S/C5H10Cl2O2/c6-1-3-8-5-9-4-2-7/h1-5H2,NLXGURFLBLRZRO-UHFFFAOYSA-N,?,218.0,101162
101166,112-06-1,112-06-1,CCCCCCCOC(C)=O,"Acetic acid, heptyl ester",Heptyl acetate,heptyl acetate,20231,DTXSID9047124,CCCCCCCOC(C)=O,"InChI=1S/C9H18O2/c1-3-4-5-6-7-8-11-9(2)10/h3-8H2,1-2H3",ZCZSIDMEHXZRLG-UHFFFAOYSA-N,?,193.0,101166
101170,112-15-2,112-15-2,CCOCCOCCOC(C)=O,CARBITOL ACETATE,2-(2-Ethoxyethoxy)ethyl acetate,2-(2-ethoxyethoxy)ethyl acetate,20235,DTXSID6026905,CCOCCOCCOC(C)=O,"InChI=1S/C8H16O4/c1-3-10-4-5-11-6-7-12-8(2)9/h3-7H2,1-2H3",FPZWZCWUIYYYBU-UHFFFAOYSA-N,?,218.5,101170
101174,112-23-2,112-23-2,CCCCCCCOC=O,"Formic acid, heptyl ester","Formic acid, heptyl ester",Heptyl formate,20239,DTXSID9059416,CCCCCCCOC=O,"InChI=1S/C8H16O2/c1-2-3-4-5-6-7-10-8-9/h8H,2-7H2,1H3",XEAMDSXSXYAICO-UHFFFAOYSA-N,?,178.1,101174
101178,112-27-6,112-27-6,OCCOCCOCCO,TRIETHYLENE GLYCOL,Triethylene glycol,"2,2'-[ethane-1,2-diylbis(oxy)]diethanol",20243,DTXSID4021393,OCCOCCOCCO,"InChI=1S/C6H14O4/c7-1-3-9-5-6-10-4-2-8/h7-8H,1-6H2",ZIBGPFATKBEMQZ-UHFFFAOYSA-N,?,285.0,101178
101182,112-32-3,112-32-3,CCCCCCCCOC=O,"Formic acid, octyl ester","Formic acid, octyl ester",Octyl formate,20247,DTXSID4059417,CCCCCCCCOC=O,"InChI=1S/C9H18O2/c1-2-3-4-5-6-7-8-11-9-10/h9H,2-8H2,1H3",AVBRYQRTMPHARE-UHFFFAOYSA-N,?,198.8,101182
101186,112-37-8,112-37-8,CCCCCCCCCCC(O)=O,UNDECANOIC ACID,Undecanoic acid,undecanoic acid,20251,DTXSID8021690,CCCCCCCCCCC(O)=O,"InChI=1S/C11H22O2/c1-2-3-4-5-6-7-8-9-10-11(12)13/h2-10H2,1H3,(H,12,13)",ZDPHROOEEOARMN-UHFFFAOYSA-N,?,280.0,101186
101190,112-42-5,112-42-5,CCCCCCCCCCCO,1-UNDECANOL,1-Undecanol,undecan-1-ol,20255,DTXSID0026915,CCCCCCCCCCCO,"InChI=1S/C11H24O/c1-2-3-4-5-6-7-8-9-10-11-12/h12H,2-11H2,1H3",KJIOQYGWTQBHNH-UHFFFAOYSA-N,?,243.0,101190
101194,112-49-2,112-49-2,COCCOCCOCCOC,"2,5,8,11-TETRAOXADODECANE",Triethylene glycol dimethyl ether,"2,5,8,11-tetraoxadodecane",20259,DTXSID8026224,COCCOCCOCCOC,"InChI=1S/C8H18O4/c1-9-3-5-11-7-8-12-6-4-10-2/h3-8H2,1-2H3",YFNKIDBQEZZDLK-UHFFFAOYSA-N,?,216.0,101194
101198,112-55-0,112-55-0,CCCCCCCCCCCCS,DODECYL MERCAPTAN,1-Dodecanethiol,dodecane-1-thiol,20263,DTXSID6025220,CCCCCCCCCCCCS,"InChI=1S/C12H26S/c1-2-3-4-5-6-7-8-9-10-11-12-13/h13H,2-12H2,1H3",WNAHIZMDSQCWRP-UHFFFAOYSA-N,?,274.0,101198
101202,112-60-7,112-60-7,OCCOCCOCCOCCO,TETRAETHYLENE GLYCOL,Tetraethylene glycol,"2,2'-[oxybis(ethane-2,1-diyloxy)]diethanol",20267,DTXSID9026922,OCCOCCOCCOCCO,"InChI=1S/C8H18O5/c9-1-3-11-5-7-13-8-6-12-4-2-10/h9-10H,1-8H2",UWHCKJMYHZGTIT-UHFFFAOYSA-N,?,328.0,101202
101206,112-72-1,112-72-1,CCCCCCCCCCCCCCO,1-TETRADECANOL,1-Tetradecanol,tetradecan-1-ol,20271,DTXSID9026926,CCCCCCCCCCCCCCO,"InChI=1S/C14H30O/c1-2-3-4-5-6-7-8-9-10-11-12-13-14-15/h15H,2-14H2,1H3",HLZKNKRTKFSKGZ-UHFFFAOYSA-N,?,289.0,101206
101210,112-95-8,112-95-8,CCCCCCCCCCCCCCCCCCCC,EICOSANE,Eicosane,icosane,20275,DTXSID1025227,CCCCCCCCCCCCCCCCCCCC,"InChI=1S/C20H42/c1-3-5-7-9-11-13-15-17-19-20-18-16-14-12-10-8-6-4-2/h3-20H2,1-2H3",CBFCDTFDPHXCNY-UHFFFAOYSA-N,?,343.0,101210
101214,115-07-1,115-07-1,CC=C,PROPENE,1-Propene,prop-1-ene,20279,DTXSID5021205,CC=C,"InChI=1S/C3H6/c1-3-2/h3H,1H2,2H3",QQONPFPTGQHPMA-UHFFFAOYSA-N,?,-48.0,101214
101218,115-18-4,115-18-4,CC(C)(O)C=C,"3-Buten-2-ol, 2-methyl-",2-Methyl-3-buten-2-ol,2-methylbut-3-en-2-ol,20283,DTXSID3047471,CC(C)(O)C=C,"InChI=1S/C5H10O/c1-4-5(2,3)6/h4,6H,1H2,2-3H3",HNVRRHSXBLFLIG-UHFFFAOYSA-N,?,97.0,101218
101222,115-22-0,NOCAS_870468,CC(=O)C(C)(C)O,3-HYDROXY-3-METHYL-2-BUTANONE,,,20287,DTXSID60870468,CC(=O)C(C)(C)O,"InChI=1S/C5H10O2/c1-4(6)5(2,3)7/h7H,1-3H3",BNDRWEVUODOUDW-UHFFFAOYSA-N,?,140.5,101222
101226,115-76-4,115-76-4,CCC(CO)(CO)CC,"2,2-DIETHYL-1,3-PROPANEDIOL",Prenderol,"2,2-Diethylpropane-1,3-diol",20291,DTXSID50150923,CCC(CO)(CO)CC,"InChI=1S/C7H16O2/c1-3-7(4-2,5-8)6-9/h8-9H,3-6H2,1-2H3",XRVCFZPJAHWYTB-UHFFFAOYSA-N,?,240.5,101226
101230,115-95-7|16509-46-9,115-95-7,CC(C)=CCCC(C)(C=C)OC(C)=O,"LINALYL ACETATE, 1,6-Octadien-3-ol, 3,7-dimethyl-, acetate, (R)-",Linalyl acetate,"3,7-dimethylocta-1,6-dien-3-yl acetate",20295|24242,DTXSID7026946,CC(C)=CCCC(C)(C=C)OC(C)=O,"InChI=1S/C12H20O2/c1-6-12(5,14-11(4)13)9-7-8-10(2)3/h6,8H,1,7,9H2,2-5H3",UWKAYLJWKGQEPM-UHFFFAOYSA-N,?,220.0,101230
101234,116-14-3,116-14-3,FC(F)=C(F)F,TETRAFLUOROETHYLENE,Tetrafluoroethylene,tetrafluoroethene,20299,DTXSID6021325,FC(F)=C(F)F,InChI=1S/C2F4/c3-1(4)2(5)6,BFKJFAAPBSQJPD-UHFFFAOYSA-N,?,-75.9,101234
101238,116-54-1,116-54-1,COC(=O)C(Cl)Cl,METHYL DICHLOROACETATE,"Acetic acid, 2,2-dichloro-, methyl ester","Methyl 2,2-dichloroacetate",20303,DTXSID2059433,COC(=O)C(Cl)Cl,"InChI=1S/C3H4Cl2O2/c1-7-3(6)2(4)5/h2H,1H3",HKMLRUAPIDAGIE-UHFFFAOYSA-N,?,142.9,101238
101242,118-12-7,118-12-7,CN1C(=C)C(C)(C)c2ccccc12,"1H-Indole, 2,3-dihydro-1,3,3-trimethyl-2-methyle","1,3,3-Trimethyl-2-methyleneindoline","1,3,3-trimethyl-2-methyleneindoline",20307,DTXSID8051596,CN1C(=C)C(C)(C)c2ccccc12,"InChI=1S/C12H15N/c1-9-12(2,3)10-7-5-6-8-11(10)13(9)4/h5-8H,1H2,2-4H3",ZTUKGBOUHWYFGC-UHFFFAOYSA-N,?,248.0,101242
101247,118-74-1,118-74-1,Clc1c(Cl)c(Cl)c(Cl)c(Cl)c1Cl,HEXACHLOROBENZENE,Hexachlorobenzene,hexachlorobenzene,20311,DTXSID2020682,Clc1c(Cl)c(Cl)c(Cl)c(Cl)c1Cl,InChI=1S/C6Cl6/c7-1-2(8)4(10)6(12)5(11)3(1)9,CKAPSXZOOQJIBF-UHFFFAOYSA-N,?,325.0,101247
101251,118-93-4,118-93-4,CC(=O)c1ccccc1O,O-HYDROXYACETOPHENONE,2-Hydroxyacetophenone,1-(2-hydroxyphenyl)ethanone,20315,DTXSID7040285,CC(=O)c1ccccc1O,"InChI=1S/C8H8O2/c1-6(9)7-4-2-3-5-8(7)10/h2-5,10H,1H3",JECYUBVRTQDVAT-UHFFFAOYSA-N,?,218.0,101251
101255,119-64-2,119-64-2,C1CCCc2ccccc21,TETRALIN,Tetralin,"1,2,3,4-tetrahydronaphthalene",20319,DTXSID1026118,C1CCCc2ccccc21,"InChI=1S/C10H12/c1-2-6-10-8-4-3-7-9(10)5-1/h1-2,5-6H,3-4,7-8H2",CXWXQJXEFPUFDZ-UHFFFAOYSA-N,?,207.6,101255
101259,119-93-7,119-93-7,Cc1cc(ccc1N)-c1cc(C)c(N)cc1,BIANISIDINE,"3,3'-Dimethylbenzidine","3,3'-dimethylbiphenyl-4,4'-diamine",20323,DTXSID5024059,Cc1cc(ccc1N)-c1cc(C)c(N)cc1,"InChI=1S/C14H16N2/c1-9-7-11(3-5-13(9)15)12-4-6-14(16)10(2)8-12/h3-8H,15-16H2,1-2H3",NUIURNJTPRWVAP-UHFFFAOYSA-N,?,339.0,101259
101263,120-29-6|135-97-7,120-29-6,CN1[C@@H]2C[C@@H](O)C[C@H]1CC2,"TROPINE, Pseudotropine",Tropine,(3-endo)-8-methyl-8-azabicyclo[3.2.1]octan-3-ol,20327|20495,DTXSID2049399,CN1C2CC(O)CC1CC2,"InChI=1S/C8H15NO/c1-9-6-2-3-7(9)5-8(10)4-6/h6-8,10H,2-5H2,1H3",CYHOMWAPJJPNMW-UHFFFAOYSA-N,?,237.0,101263
101267,120-50-3,120-50-3,CC(C)COC(=O)c1ccccc1,"Benzoic acid, 2-methylpropyl ester",Isobutyl benzoate,2-methylpropyl benzoate,20331,DTXSID6047074,CC(C)COC(=O)c1ccccc1,"InChI=1S/C11H14O2/c1-9(2)8-13-11(12)10-6-4-3-5-7-10/h3-7,9H,8H2,1-2H3",KYZHGEFMXZOSJN-UHFFFAOYSA-N,?,242.0,101267
101271,120-61-6,120-61-6,COC(=O)c1ccc(cc1)C(=O)OC,DIMETHYLTEREPHTHALATE,Dimethyl terephthalate,"dimethyl benzene-1,4-dicarboxylate",20335,DTXSID0020498,COC(=O)c1ccc(cc1)C(=O)OC,"InChI=1S/C10H10O4/c1-13-9(11)7-3-5-8(6-4-7)10(12)14-2/h3-6H,1-2H3",WOZVHXUHUFLZGK-UHFFFAOYSA-N,?,288.0,101271
101275,120-75-2,120-75-2,Cc1[n]c2ccccc2[s]1,2-METHYLBENZOTHIAZOLE,2-Methylbenzothiazole,"2-methyl-1,3-benzothiazole",20339,DTXSID8049208,Cc1[n]c2ccccc2[s]1,"InChI=1S/C8H7NS/c1-6-9-7-4-2-3-5-8(7)10-6/h2-5H,1H3",DXYYSGDWQCSKKO-UHFFFAOYSA-N,?,238.0,101275
101279,120-85-4,NOCAS_861755,CN1CC(C)N(C)CC1,"Piperazine, 1,2,4-trimethyl-",,,20343,DTXSID60861755,CN1CC(C)N(C)CC1,"InChI=1S/C7H16N2/c1-7-6-8(2)4-5-9(7)3/h7H,4-6H2,1-3H3",UAIVFDJJMVMUGY-UHFFFAOYSA-N,?,149.5,101279
101283,121-17-5,121-17-5,[O-][N+](=O)c1cc(ccc1Cl)C(F)(F)F,"Benzene, 1-chloro-2-nitro-4-(trifluoromethyl)-",1-Chloro-2-nitro-4-(trifluoromethyl)benzene,1-chloro-2-nitro-4-(trifluoromethyl)benzene,20347,DTXSID2024799,[O-][N+](=O)c1cc(ccc1Cl)C(F)(F)F,"InChI=1S/C7H3ClF3NO2/c8-5-2-1-4(7(9,10)11)3-6(5)12(13)14/h1-3H",TZGFQIXRVUHDLE-UHFFFAOYSA-N,?,222.0,101283
101287,121-44-8,121-44-8,CCN(CC)CC,TRIETHYLAMINE,Triethylamine,"N,N-diethylethanamine",20351,DTXSID3024366,CCN(CC)CC,"InChI=1S/C6H15N/c1-4-7(5-2)6-3/h4-6H2,1-3H3",ZMANZCXQSJIPKH-UHFFFAOYSA-N,?,89.3,101287
101291,121-71-1,121-71-1,CC(=O)c1cccc(O)c1,M-HYDROXYACETOPHENONE,"Ethanone, 1-(3-hydroxyphenyl)-",1-(3-hydroxyphenyl)ethanone,20355,DTXSID5059533,CC(=O)c1cccc(O)c1,"InChI=1S/C8H8O2/c1-6(9)7-3-2-4-8(10)5-7/h2-5,10H,1H3",LUJMEECXHPYQOF-UHFFFAOYSA-N,?,296.0,101291
101295,121-89-1,121-89-1,CC(=O)c1cc(ccc1)[N+]([O-])=O,3-NITROACETOPHENONE,3-Nitroacetophenone,1-(3-nitrophenyl)ethanone,20359,DTXSID1025722,CC(=O)c1cc(ccc1)[N+]([O-])=O,"InChI=1S/C8H7NO3/c1-6(10)7-3-2-4-8(5-7)9(11)12/h2-5H,1H3",ARKIFHPFTHVKDT-UHFFFAOYSA-N,?,202.0,101295
101299,122-01-0,122-01-0,O=C(Cl)c1ccc(Cl)cc1,"Benzoyl chloride, 4-chloro-",4-Chlorobenzoyl chloride,4-chlorobenzoyl chloride,20363,DTXSID4051619,O=C(Cl)c1ccc(Cl)cc1,InChI=1S/C7H4Cl2O/c8-6-3-1-5(2-4-6)7(9)10/h1-4H,RKIDDEGICSMIJA-UHFFFAOYSA-N,?,222.0,101299
101303,122-20-3,122-20-3,CC(O)CN(CC(C)O)CC(C)O,"2-Propanol, 1,1',1''-nitrilotris-",Triisopropanolamine,"1,1',1''-nitrilotripropan-2-ol",20367,DTXSID5021415,CC(O)CN(CC(C)O)CC(C)O,"InChI=1S/C9H21NO3/c1-7(11)4-10(5-8(2)12)6-9(3)13/h7-9,11-13H,4-6H2,1-3H3",SLINHMUFWFWBMU-UHFFFAOYSA-N,?,305.0,101303
101307,122-46-3,122-46-3,Cc1cccc(c1)OC(C)=O,M-TOLYLACETATE,m-Cresyl acetate,3-methylphenyl acetate,20371,DTXSID7046041,Cc1cccc(c1)OC(C)=O,"InChI=1S/C9H10O2/c1-7-4-3-5-9(6-7)11-8(2)10/h3-6H,1-2H3",OTGAHJPFNKQGAE-UHFFFAOYSA-N,?,212.0,101307
101311,122-57-6|1896-62-4,122-57-6|1896-62-4,CC(=O)C=Cc1ccccc1,"METHYL STYRYL KETONE, 4-Phenyl-but-3-en-2-one",Methyl styryl ketone,4-phenylbut-3-en-2-one,20375|22986,DTXSID4025662|DTXSID1031626,CC(=O)C=Cc1ccccc1,"InChI=1S/C10H10O/c1-9(11)7-8-10-5-3-2-4-6-10/h2-8H,1H3/b8-7+",BWHOZHOGCMHOBV-BQYQJAHWSA-N,?,261.5,101311
101315,122-66-7,122-66-7,c1ccccc1NNc1ccccc1,HYDRAZOBENZENE,"1,2-Diphenylhydrazine","1,2-diphenylhydrazine",20379,DTXSID7020710,c1ccccc1NNc1ccccc1,"InChI=1S/C12H12N2/c1-3-7-11(8-4-1)13-14-12-9-5-2-6-10-12/h1-10,13-14H",YBQZXXMEJHZYMB-UHFFFAOYSA-N,?,309.0,101315
101319,122-79-2,122-79-2,CC(=O)Oc1ccccc1,PHENYL ACETATE,Phenyl acetate,phenyl acetate,20383,DTXSID3051626,CC(=O)Oc1ccccc1,"InChI=1S/C8H8O2/c1-7(9)10-8-5-3-2-4-6-8/h2-6H,1H3",IPBVNPXQWQGGJP-UHFFFAOYSA-N,?,196.0,101319
101323,122-97-4,122-97-4,OCCCc1ccccc1,3-PHENYLPROPANOL,3-Phenyl-1-propanol,3-phenylpropan-1-ol,20387,DTXSID6041638,OCCCc1ccccc1,"InChI=1S/C9H12O/c10-8-4-7-9-5-2-1-3-6-9/h1-3,5-6,10H,4,7-8H2",VAJVDSVGBWFCLW-UHFFFAOYSA-N,?,235.0,101323
101327,123-01-3,123-01-3,CCCCCCCCCCCCc1ccccc1,DODECYLBENZENE,Dodecylbenzene,dodecylbenzene,20391,DTXSID7026994,CCCCCCCCCCCCc1ccccc1,"InChI=1S/C18H30/c1-2-3-4-5-6-7-8-9-10-12-15-18-16-13-11-14-17-18/h11,13-14,16-17H,2-10,12,15H2,1H3",KWKXNDCHNDYVRT-UHFFFAOYSA-N,?,328.0,101327
101331,123-07-9,123-07-9,CCc1ccc(O)cc1,P-ETHYLPHENOL,4-Ethylphenol,4-ethylphenol,20395,DTXSID4021977,CCc1ccc(O)cc1,"InChI=1S/C8H10O/c1-2-7-3-5-8(9)6-4-7/h3-6,9H,2H2,1H3",HXDOZKJGKXYMEW-UHFFFAOYSA-N,?,217.9,101331
101335,123-17-1,123-17-1,CC(CC(C)C)CC(O)CC(C)C,"4-Nonanol, 2,6,8-trimethyl-","2,6,8-Trimethyl-4-nonanol","2,6,8-trimethylnonan-4-ol",20399,DTXSID8029159,CC(CC(C)C)CC(O)CC(C)C,"InChI=1S/C12H26O/c1-9(2)6-11(5)8-12(13)7-10(3)4/h9-13H,6-8H2,1-5H3",LFEHSRSSAGQWNI-UHFFFAOYSA-N,?,225.4,101335
101339,123-30-8,123-30-8,Nc1ccc(O)cc1,"PHENOL, 4-AMINO-",4-Aminophenol,4-aminophenol,20403,DTXSID3024499,Nc1ccc(O)cc1,"InChI=1S/C6H7NO/c7-5-1-3-6(8)4-2-5/h1-4,8H,7H2",PLIKAWJENQZMHA-UHFFFAOYSA-N,?,284.0,101339
101343,123-38-6,123-38-6,CCC=O,PROPIONALDEHYDE,Propanal,propanal,20407,DTXSID2021658,CCC=O,"InChI=1S/C3H6O/c1-2-3-4/h3H,2H2,1H3",NBBJYMSMWIIQGU-UHFFFAOYSA-N,?,48.0,101343
101348,123-56-8,123-56-8,O=C1CCC(=O)N1,SUCCINIMIDE,Succinimide,"pyrrolidine-2,5-dione",20411,DTXSID8051629,O=C1CCC(=O)N1,"InChI=1S/C4H5NO2/c6-3-1-2-4(7)5-3/h1-2H2,(H,5,6,7)",KZNICNPSHKQLFF-UHFFFAOYSA-N,?,288.0,101348
101352,123-68-2,123-68-2,CCCCCC(=O)OCC=C,Allyl caproate,Allyl hexanoate,prop-2-en-1-yl hexanoate,20415,DTXSID1047653,CCCCCC(=O)OCC=C,"InChI=1S/C9H16O2/c1-3-5-6-7-9(10)11-8-4-2/h4H,2-3,5-8H2,1H3",RCSBILYQLVXLJG-UHFFFAOYSA-N,?,186.0,101352
101356,123-76-2,123-76-2,CC(=O)CCC(O)=O,LEVULINIC ACID,4-Oxopentanoic acid,4-oxopentanoic acid,20419,DTXSID8021648,CC(=O)CCC(O)=O,"InChI=1S/C5H8O3/c1-4(6)2-3-5(7)8/h2-3H2,1H3,(H,7,8)",JOOXCMJARBKPKM-UHFFFAOYSA-N,?,245.5,101356
101360,123-86-4,123-86-4,CCCCOC(C)=O,N-BUTYL ACETATE,Butyl acetate,butyl acetate,20423,DTXSID3021982,CCCCOC(C)=O,"InChI=1S/C6H12O2/c1-3-4-5-8-6(2)7/h3-5H2,1-2H3",DKPFZGUDAPQIHT-UHFFFAOYSA-N,?,126.1,101360