ChemID,source_casrn,CAS,SMILES,NAME,preferred_name,iupac,MPID,dsstox_substance_id,Canonical_QSARr,InChI_Code_QSARr,InChI Key_QSARr,Salt_Solvent,BP,ID
100461,93-58-3,93-58-3,COC(=O)c1ccccc1,"BENZOIC ACID, METHYL ESTER",Methyl benzoate,methyl benzoate,19540,DTXSID5025572,COC(=O)c1ccccc1,"InChI=1S/C8H8O2/c1-10-8(9)7-5-3-2-4-6-7/h2-6H,1H3",QPJVMBTYPHYUOC-UHFFFAOYSA-N,?,199.0,100461
100462,93-60-7,93-60-7,COC(=O)c1ccc[n]c1,"NICOTINIC ACID, METHYL ESTER",Methyl nicotinate,methyl pyridine-3-carboxylate,19541,DTXSID7044471,COC(=O)c1ccc[n]c1,"InChI=1S/C7H7NO2/c1-10-7(9)6-3-2-4-8-5-6/h2-5H,1H3",YNBADRVTZLEFNH-UHFFFAOYSA-N,?,204.0,100462
100464,93-65-2,93-65-2,Cc1cc(Cl)ccc1OC(C)C(O)=O,MECOPROP,Mecoprop,2-(4-chloro-2-methylphenoxy)propanoic acid,19543,DTXSID9024194,Cc1cc(Cl)ccc1OC(C)C(O)=O,"InChI=1S/C10H11ClO3/c1-6-5-8(11)3-4-9(6)14-7(2)10(12)13/h3-5,7H,1-2H3,(H,12,13)",WNTGYJSOUMFZEP-UHFFFAOYSA-N,?,298.0,100464
100466,93-89-0,93-89-0,CCOC(=O)c1ccccc1,ETHYL BENZOATE,Ethyl benzoate,ethyl benzoate,19544,DTXSID3038696,CCOC(=O)c1ccccc1,"InChI=1S/C9H10O2/c1-2-11-9(10)8-6-4-3-5-7-8/h3-7H,2H2,1H3",MTZQAGJQAFMTAQ-UHFFFAOYSA-N,?,212.0,100466
100467,93-91-4,93-91-4,CC(=O)CC(=O)c1ccccc1,"1,3-Butanedione, 1-phenyl-",1-Benzoylacetone,"1-phenylbutane-1,3-dione",19545,DTXSID3021803,CC(=O)CC(=O)c1ccccc1,"InChI=1S/C10H10O2/c1-8(11)7-10(12)9-5-3-2-4-6-9/h2-6H,7H2,1H3",CVBUKMMMRLOKQR-UHFFFAOYSA-N,?,261.5,100467
100469,93-99-2,93-99-2,O=C(Oc1ccccc1)c1ccccc1,PHENYL BENZOATE,Phenyl benzoate,phenyl benzoate,19547,DTXSID0048210,O=C(Oc1ccccc1)c1ccccc1,InChI=1S/C13H10O2/c14-13(11-7-3-1-4-8-11)15-12-9-5-2-6-10-12/h1-10H,FCJSHPDYVMKCHI-UHFFFAOYSA-N,?,314.0,100469
100470,94-08-6,94-08-6,Cc1ccc(cc1)C(=O)OCC,4-Methylbenzoic acid ethyl ester,Ethyl 4-methylbenzoate,ethyl 4-methylbenzoate,19548,DTXSID5048211,Cc1ccc(cc1)C(=O)OCC,"InChI=1S/C10H12O2/c1-3-12-10(11)9-6-4-8(2)5-7-9/h4-7H,3H2,1-2H3",NWPWRAWAUYIELB-UHFFFAOYSA-N,?,232.0,100470
100471,94-09-7,94-09-7,CCOC(=O)c1ccc(N)cc1,"P-AMINOBENZOIC ACID, ETHYL ESTER",Benzocaine,ethyl 4-aminobenzoate,19549,DTXSID8021804,CCOC(=O)c1ccc(N)cc1,"InChI=1S/C9H11NO2/c1-2-12-9(11)7-3-5-8(10)6-4-7/h3-6H,2,10H2,1H3",BLFLLBZGZJTVJG-UHFFFAOYSA-N,?,310.0,100471
100473,94-41-7,614-47-1,O=C(/C=C/c1ccccc1)c1ccccc1,BENZALACETOPHENONE,Chalcone,"(2E)-1,3-diphenylprop-2-en-1-one",19551,DTXSID20873536,O=C(C=Cc1ccccc1)c1ccccc1,InChI=1S/C15H12O/c16-15(14-9-5-2-6-10-14)12-11-13-7-3-1-4-8-13/h1-12H/b12-11+,DQFBYFPFKXHELB-VAWYXSNFSA-N,?,346.5,100473
100474,94-46-2,94-46-2,CC(C)CCOC(=O)c1ccccc1,"1-BUTANOL, 3-METHYL-, BENZOATE",Isopentyl benzoate,3-methylbutyl benzoate,19552,DTXSID8047185,CC(C)CCOC(=O)c1ccccc1,"InChI=1S/C12H16O2/c1-10(2)8-9-14-12(13)11-6-4-3-5-7-11/h3-7,10H,8-9H2,1-2H3",MLLAPOCBLWUFAP-UHFFFAOYSA-N,?,261.0,100474
100475,94-58-6,94-58-6,CCCc1cc2OCOc2cc1,DIHYDROSAFROLE,Dihydrosafrole,"5-propyl-1,3-benzodioxole",19553,DTXSID7020475,CCCc1cc2OCOc2cc1,"InChI=1S/C10H12O2/c1-2-3-8-4-5-9-10(6-8)12-7-11-9/h4-6H,2-3,7H2,1H3",MYEIDJPOUKASEC-UHFFFAOYSA-N,?,228.0,100475
100477,94-65-5,67113-13-7,CCC[C@H]1CCCCC1=O,"Cyclohexanone, 2-propyl-","Cyclohexanone, 2-propyl-, (2S)-",C9H16O,19555,DTXSID60454904,CCCC1CCCCC1=O,"InChI=1S/C9H16O/c1-2-5-8-6-3-4-7-9(8)10/h8H,2-7H2,1H3",OCJLPZCBZSCVCO-UHFFFAOYSA-N,?,197.0,100477
100478,94-68-8,94-68-8,Cc1ccccc1NCC,"Benzenamine, N-ethyl-2-methyl-",N-Ethyl-2-methylaniline,N-Ethyl-2-methylaniline,19556,DTXSID1059107,Cc1ccccc1NCC,"InChI=1S/C9H13N/c1-3-10-9-7-5-4-6-8(9)2/h4-7,10H,3H2,1-2H3",MWOUGPLLVVEUMM-UHFFFAOYSA-N,?,216.0,100478
100479,94-69-9,94-69-9,Cc1ccccc1NC=O,"Formamide, N-(2-methylphenyl)-","Formamide, N-(2-methylphenyl)-",N-(2-Methylphenyl)formamide,19557,DTXSID6059108,Cc1ccccc1NC=O,"InChI=1S/C8H9NO/c1-7-4-2-3-5-8(7)9-6-10/h2-6H,1H3,(H,9,10)",ZXTLGJAARBNQGK-UHFFFAOYSA-N,?,288.0,100479
100481,94-71-3,94-71-3,CCOc1ccccc1O,O-ETHOXYPHENOL,2-Ethoxyphenol,2-ethoxyphenol,19559,DTXSID2042276,CCOc1ccccc1O,"InChI=1S/C8H10O2/c1-2-10-8-6-4-3-5-7(8)9/h3-6,9H,2H2,1H3",MOEFFSWKSMRFRQ-UHFFFAOYSA-N,?,217.0,100481
100482,94-74-6,94-74-6,Cc1cc(Cl)ccc1OCC(O)=O,2-METHYL-4-CHLOROPHENOXYACETIC ACID,MCPA,(4-chloro-2-methylphenoxy)acetic acid,19560,DTXSID4024195,Cc1cc(Cl)ccc1OCC(O)=O,"InChI=1S/C9H9ClO3/c1-6-4-7(10)2-3-8(6)13-5-9(11)12/h2-4H,5H2,1H3,(H,11,12)",WHKUVVPPKQRRBV-UHFFFAOYSA-N,?,286.74,100482
100483,94-82-6,94-82-6,OC(=O)CCCOc1ccc(Cl)cc1Cl,"2,4-DB","2,4-DB","4-(2,4-dichlorophenoxy)butanoic acid",19561,DTXSID7024035,OC(=O)CCCOc1ccc(Cl)cc1Cl,"InChI=1S/C10H10Cl2O3/c11-7-3-4-9(8(12)6-7)15-5-1-2-10(13)14/h3-4,6H,1-2,5H2,(H,13,14)",YIVXMZJTEQBPQO-UHFFFAOYSA-N,?,324.35,100483
100485,94-99-5,94-99-5,ClCc1ccc(Cl)cc1Cl,"2,4-DICHLOROBENZYLCHLORIDE","2,4-Dichloro-1-(chloromethyl)benzene","2,4-dichloro-1-(chloromethyl)benzene",19563,DTXSID9045005,ClCc1ccc(Cl)cc1Cl,"InChI=1S/C7H5Cl3/c8-4-5-1-2-6(9)3-7(5)10/h1-3H,4H2",IRSVDHPYXFLLDS-UHFFFAOYSA-N,?,248.0,100485
100486,95-13-6,95-13-6,C1C=Cc2ccccc21,INDENE,Indene,1H-indene,19564,DTXSID8042052,C1C=Cc2ccccc21,"InChI=1S/C9H8/c1-2-5-9-7-3-6-8(9)4-1/h1-6H,7H2",YBYIRNPNPLQARY-UHFFFAOYSA-N,?,182.0,100486
100487,95-14-7,95-14-7,c1cccc2[nH][n][n]c21,1H-BENZOTRIAZOLE,"1,2,3-Benzotriazole",1H-benzotriazole,19565,DTXSID6020147,c1cccc2[nH][n][n]c21,"InChI=1S/C6H5N3/c1-2-4-6-5(3-1)7-9-8-6/h1-4H,(H,7,8,9)",QRUDEWIWKLJBPS-UHFFFAOYSA-N,?,350.0,100487
100489,95-16-9,95-16-9,c1[n]c2ccccc2[s]1,BENZOTHIAZOLE,Benzothiazole,"1,3-benzothiazole",19567,DTXSID7024586,c1[n]c2ccccc2[s]1,InChI=1S/C7H5NS/c1-2-4-7-6(3-1)8-5-9-7/h1-5H,IOJUPLGTWVMSFF-UHFFFAOYSA-N,?,231.0,100489
100490,95-20-5,95-20-5,Cc1cc2ccccc2[nH]1,2-METHYLINDOLE,"1H-Indole, 2-methyl-",2-Methyl-1H-indole,19568,DTXSID5059117,Cc1cc2ccccc2[nH]1,"InChI=1S/C9H9N/c1-7-6-8-4-2-3-5-9(8)10-7/h2-6,10H,1H3",BHNHHSOHWZKFOX-UHFFFAOYSA-N,?,272.0,100490
100491,95-21-6,NOCAS_870432,Cc1[n]c2ccccc2o1,"Benzoxazole, 2-methyl-",,,19569,DTXSID50870432,Cc1[n]c2ccccc2o1,"InChI=1S/C8H7NO/c1-6-9-7-4-2-3-5-8(7)10-6/h2-5H,1H3",DQSHFKPKFISSNM-UHFFFAOYSA-N,?,200.5,100491
100493,95-47-6,95-47-6,Cc1ccccc1C,O-XYLENE,o-Xylene,C8H10,19571,DTXSID3021807,Cc1ccccc1C,"InChI=1S/C8H10/c1-7-5-3-4-6-8(7)2/h3-6H,1-2H3",CTQNGGLPUBDAKN-UHFFFAOYSA-N,?,144.5,100493
100494,95-48-7,95-48-7,Cc1ccccc1O,O-CRESOL,o-Cresol,2-methylphenol,19572,DTXSID8021808,Cc1ccccc1O,"InChI=1S/C7H8O/c1-6-4-2-3-5-7(6)8/h2-5,8H,1H3",QWVGKYWNOKOFNN-UHFFFAOYSA-N,?,191.0,100494
100495,95-49-8,95-49-8,Cc1ccccc1Cl,2-CHLOROTOLUENE,2-Chlorotoluene,1-chloro-2-methylbenzene,19573,DTXSID8023977,Cc1ccccc1Cl,"InChI=1S/C7H7Cl/c1-6-4-2-3-5-7(6)8/h2-5H,1H3",IBSQPLPBRSHTTG-UHFFFAOYSA-N,?,159.0,100495
100497,95-51-2,95-51-2,Nc1ccccc1Cl,2-CHLOROANILINE,2-Chloroaniline,2-chloroaniline,19575,DTXSID2021810,Nc1ccccc1Cl,"InChI=1S/C6H6ClN/c7-5-3-1-2-4-6(5)8/h1-4H,8H2",AKCRQHGQIJBRMN-UHFFFAOYSA-N,?,208.8,100497
100498,95-52-3,95-52-3,Cc1ccccc1F,O-FLUOROTOLUENE,2-Fluorotoluene,1-fluoro-2-methylbenzene,19576,DTXSID7021811,Cc1ccccc1F,"InChI=1S/C7H7F/c1-6-4-2-3-5-7(6)8/h2-5H,1H3",MMZYCBHLNZVROM-UHFFFAOYSA-N,?,115.0,100498
100499,95-53-4,95-53-4,Cc1ccccc1N,O-TOLUIDINE,2-Methylaniline,2-methylaniline,19577,DTXSID1026164,Cc1ccccc1N,"InChI=1S/C7H9N/c1-6-4-2-3-5-7(6)8/h2-5H,8H2,1H3",RNVCVTLRINQCPJ-UHFFFAOYSA-N,?,200.3,100499
100501,95-56-7,95-56-7,Oc1ccccc1Br,O-BROMOPHENOL,2-Bromophenol,2-bromophenol,19579,DTXSID8052641,Oc1ccccc1Br,"InChI=1S/C6H5BrO/c7-5-3-1-2-4-6(5)8/h1-4,8H",VADKRMSMGWJZCF-UHFFFAOYSA-N,?,194.5,100501
100502,95-57-8,95-57-8,Oc1ccccc1Cl,2-CHLOROPHENOL,2-Chlorophenol,2-chlorophenol,19580,DTXSID5021544,Oc1ccccc1Cl,"InChI=1S/C6H5ClO/c7-5-3-1-2-4-6(5)8/h1-4,8H",ISPYQTSUDJAMAB-UHFFFAOYSA-N,?,174.9,100502
100503,95-63-6,95-63-6,Cc1cc(C)c(C)cc1,"1,2,4-TRIMETHYLBENZENE","1,2,4-Trimethylbenzene","1,2,4-trimethylbenzene",19581,DTXSID6021402,Cc1cc(C)c(C)cc1,"InChI=1S/C9H12/c1-7-4-5-8(2)9(3)6-7/h4-6H,1-3H3",GWHJZXXIDMPWGX-UHFFFAOYSA-N,?,169.3,100503
100505,95-65-8,95-65-8,Cc1cc(O)ccc1C,"3,4-DIMETHYLPHENOL","3,4-Dimethylphenol","3,4-dimethylphenol",19583,DTXSID4024062,Cc1cc(O)ccc1C,"InChI=1S/C8H10O/c1-6-3-4-8(9)5-7(6)2/h3-5,9H,1-2H3",YCOXTKKNXUZSKD-UHFFFAOYSA-N,?,227.0,100505
100506,95-66-9,95-66-9,Cc1cc(C)c(Cl)cc1,"BENZENE, 1-CHLORO-2,4-DIMETHYL-","1-Chloro-2,4-dimethylbenzene",C8H9Cl,19584,DTXSID50335157,Cc1cc(C)c(Cl)cc1,"InChI=1S/C8H9Cl/c1-6-3-4-8(9)7(2)5-6/h3-5H,1-2H3",UIEVCEQLNUHDIF-UHFFFAOYSA-N,?,184.0,100506
100507,95-68-1,95-68-1,Cc1cc(C)c(N)cc1,"2,4-DIMETHYLANILINE","2,4-Dimethylaniline","2,4-dimethylaniline",19585,DTXSID8026305,Cc1cc(C)c(N)cc1,"InChI=1S/C8H11N/c1-6-3-4-8(9)7(2)5-6/h3-5H,9H2,1-2H3",CZZZABOKJQXEBO-UHFFFAOYSA-N,?,214.0,100507
100509,95-70-5,95-70-5,Cc1cc(N)ccc1N,"2,5-DIAMINOTOLUENE","2-Methyl-1,4-benzenediamine","2-methylbenzene-1,4-diamine",19587,DTXSID6029123,Cc1cc(N)ccc1N,"InChI=1S/C7H10N2/c1-5-4-6(8)2-3-7(5)9/h2-4H,8-9H2,1H3",OBCSAIDCZQSFQH-UHFFFAOYSA-N,?,273.5,100509
100510,95-71-6,95-71-6,Cc1cc(O)ccc1O,"1,4-BENZENEDIOL, 2-METHYL-",Methylhydroquinone,"2-methylbenzene-1,4-diol",19588,DTXSID4020876,Cc1cc(O)ccc1O,"InChI=1S/C7H8O2/c1-5-4-6(8)2-3-7(5)9/h2-4,8-9H,1H3",CNHDIAIOKMXOLK-UHFFFAOYSA-N,?,272.0,100510
100511,95-72-7,95-72-7,Cc1cc(Cl)c(C)cc1,"Benzene, 2-chloro-1,4-dimethyl-","Benzene, 2-chloro-1,4-dimethyl-","2-Chloro-1,4-dimethylbenzene",19589,DTXSID9059125,Cc1cc(Cl)c(C)cc1,"InChI=1S/C8H9Cl/c1-6-3-4-7(2)8(9)5-6/h3-5H,1-2H3",KZNRNQGTVRTDPN-UHFFFAOYSA-N,?,187.0,100511
100513,95-74-9,95-74-9,Cc1ccc(N)cc1Cl,3-CHLORO-P-TOLUIDINE,3-Chloro-4-methylaniline,3-chloro-4-methylaniline,19591,DTXSID0020286,Cc1ccc(N)cc1Cl,"InChI=1S/C7H8ClN/c1-5-2-3-6(9)4-7(5)8/h2-4H,9H2,1H3",RQKFYFNZSHWXAW-UHFFFAOYSA-N,?,243.0,100513
100514,95-75-0,95-75-0,Cc1cc(Cl)c(Cl)cc1,"3,4-DICHLOROTOLUENE","3,4-Dichlorotoluene","1,2-dichloro-4-methylbenzene",19592,DTXSID2021814,Cc1cc(Cl)c(Cl)cc1,"InChI=1S/C7H6Cl2/c1-5-2-3-6(8)7(9)4-5/h2-4H,1H3",WYUIWKFIFOJVKW-UHFFFAOYSA-N,?,208.9,100514
100515,95-76-1,95-76-1,Nc1cc(Cl)c(Cl)cc1,"3,4-DICHLOROANILINE","3,4-Dichloroaniline","3,4-dichloroaniline",19593,DTXSID7021815,Nc1cc(Cl)c(Cl)cc1,"InChI=1S/C6H5Cl2N/c7-5-2-1-4(9)3-6(5)8/h1-3H,9H2",SDYWXFYBZPNOFX-UHFFFAOYSA-N,?,272.0,100515
100517,95-78-3,95-78-3,Cc1cc(N)c(C)cc1,"2,5-DIMETHYLANILINE","2,5-Dimethylaniline","2,5-dimethylaniline",19595,DTXSID3026306,Cc1cc(N)c(C)cc1,"InChI=1S/C8H11N/c1-6-3-4-7(2)8(9)5-6/h3-5H,9H2,1-2H3",VOWZNBNDMFLQGM-UHFFFAOYSA-N,?,214.0,100517
100518,95-79-4,95-79-4,Cc1ccc(Cl)cc1N,5-CHLORO-O-TOLUIDINE,5-Chloro-2-methylaniline,5-chloro-2-methylaniline,19596,DTXSID5020287,Cc1ccc(Cl)cc1N,"InChI=1S/C7H8ClN/c1-5-2-3-6(8)4-7(5)9/h2-4H,9H2,1H3",WRZOMWDJOLIVQP-UHFFFAOYSA-N,?,239.0,100518
100519,95-80-7,95-80-7,Cc1ccc(N)cc1N,"2,4-TOLUENEDIAMINE","2,4-Diaminotoluene","4-methylbenzene-1,3-diamine",19597,DTXSID4020402,Cc1ccc(N)cc1N,"InChI=1S/C7H10N2/c1-5-2-3-6(8)4-7(5)9/h2-4H,8-9H2,1H3",VOZKAJLKRJDJLL-UHFFFAOYSA-N,?,292.0,100519
100521,95-82-9,95-82-9,Nc1cc(Cl)ccc1Cl,"2,5-DICHLOROANILINE","2,5-Dichloroaniline","2,5-dichloroaniline",19599,DTXSID6024967,Nc1cc(Cl)ccc1Cl,"InChI=1S/C6H5Cl2N/c7-4-1-2-5(8)6(9)3-4/h1-3H,9H2",AVYGCQXNNJPXSS-UHFFFAOYSA-N,?,251.0,100521
100522,95-83-0,95-83-0,Nc1cc(Cl)ccc1N,"4-CHLORO-1,2-BENZENEDIAMINE","4-Chloro-1,2-diaminobenzene","4-chlorobenzene-1,2-diamine",19600,DTXSID5020283,Nc1cc(Cl)ccc1N,"InChI=1S/C6H7ClN2/c7-4-1-2-5(8)6(9)3-4/h1-3H,8-9H2",BXIXXXYDDJVHDL-UHFFFAOYSA-N,?,229.3,100522
100523,95-87-4,95-87-4,Cc1cc(O)c(C)cc1,"2,5-DIMETHYLPHENOL","2,5-Dimethylphenol","2,5-dimethylphenol",19601,DTXSID6025145,Cc1cc(O)c(C)cc1,"InChI=1S/C8H10O/c1-6-3-4-7(2)8(9)5-6/h3-5,9H,1-2H3",NKTOLZVEWDHZMU-UHFFFAOYSA-N,?,211.1,100523
100525,95-93-2,95-93-2,Cc1cc(C)c(C)cc1C,"1,2,4,5-TETRAMETHYLBENZENE","1,2,4,5-Tetramethylbenzene","1,2,4,5-tetramethylbenzene",19603,DTXSID1029124,Cc1cc(C)c(C)cc1C,"InChI=1S/C10H14/c1-7-5-9(3)10(4)6-8(7)2/h5-6H,1-4H3",SQNZJJAZBFDUTD-UHFFFAOYSA-N,?,196.8,100525
100526,95-94-3,95-94-3,Clc1cc(Cl)c(Cl)cc1Cl,"1,2,4,5-TETRACHLOROBENZENE","1,2,4,5-Tetrachlorobenzene","1,2,4,5-tetrachlorobenzene",19604,DTXSID7024320,Clc1cc(Cl)c(Cl)cc1Cl,InChI=1S/C6H2Cl4/c7-3-1-4(8)6(10)2-5(3)9/h1-2H,JHBKHLUZVFWLAG-UHFFFAOYSA-N,?,244.5,100526
100527,95-95-4,95-95-4,Oc1cc(Cl)c(Cl)cc1Cl,"2,4,5-TRICHLOROPHENOL","2,4,5-Trichlorophenol",C6H3Cl3O,19605,DTXSID4024359,Oc1cc(Cl)c(Cl)cc1Cl,"InChI=1S/C6H3Cl3O/c7-3-1-5(9)6(10)2-4(3)8/h1-2,10H",LHJGJYXLEPZJPM-UHFFFAOYSA-N,?,247.0,100527
100529,96-09-3,96-09-3,C1OC1c1ccccc1,STYRENE OXIDE,Styrene oxide,2-phenyloxirane,19607,DTXSID2021286,C1OC1c1ccccc1,"InChI=1S/C8H8O/c1-2-4-7(5-3-1)8-6-9-8/h1-5,8H,6H2",AWMVMTVKBNGEAK-UHFFFAOYSA-N,?,194.1,100529
100531,96-11-7,96-11-7,BrC(CBr)CBr,"Propane, 1,2,3-tribromo-","Propane, 1,2,3-tribromo-","1,2,3-Tribromopropane",19608,DTXSID9059129,BrC(CBr)CBr,"InChI=1S/C3H5Br3/c4-1-3(6)2-5/h3H,1-2H2",FHCLGDLYRUPKAM-UHFFFAOYSA-N,?,222.1,100531
100532,96-12-8,96-12-8,ClCC(Br)CBr,"1,2-DIBROMO-3-CHLOROPROPANE","1,2-Dibromo-3-chloropropane","1,2-dibromo-3-chloropropane",19609,DTXSID3020413,ClCC(Br)CBr,"InChI=1S/C3H5Br2Cl/c4-1-3(5)2-6/h3H,1-2H2",WBEJYOJJBDISQU-UHFFFAOYSA-N,?,196.0,100532
100534,96-18-4,96-18-4,ClC(CCl)CCl,"1,2,3-TRICHLOROPROPANE","1,2,3-Trichloropropane","1,2,3-trichloropropane",19611,DTXSID9021390,ClC(CCl)CCl,"InChI=1S/C3H5Cl3/c4-1-3(6)2-5/h3H,1-2H2",CFXQEHVMCRXUSD-UHFFFAOYSA-N,?,157.0,100534
100535,96-19-5,96-19-5,ClCC(Cl)=CCl,"1,2,3-TRICHLOROPROPENE","1,2,3-Trichloropropene","1,2,3-trichloroprop-1-ene",19612,DTXSID3047766,ClCC(Cl)=CCl,"InChI=1S/C3H3Cl3/c4-1-3(6)2-5/h1H,2H2/b3-1+",HIILBTHBHCLUER-HNQUOIGGSA-N,?,142.0,100535
100536,96-20-8|13054-87-0,5856-63-3,CC[C@@H](N)CO,"2-Amino-1-butanol, 2-Amino-butan-1-ol",(2R)-2-Aminobutan-1-ol,(2R)-2-aminobutan-1-ol,19613|24116,DTXSID9029275,CCC(N)CO,"InChI=1S/C4H11NO/c1-2-4(5)3-6/h4,6H,2-3,5H2,1H3",JCBPETKZIGVZRE-UHFFFAOYSA-N,?,178.0,100536
100538,96-23-1,96-23-1,OC(CCl)CCl,"1,3-DICHLORO-2-PROPANOL","1,3-Dichloro-2-propanol","1,3-dichloropropan-2-ol",19615,DTXSID6025010,OC(CCl)CCl,"InChI=1S/C3H6Cl2O/c4-1-3(6)2-5/h3,6H,1-2H2",DEWLEGDTCGBNGU-UHFFFAOYSA-N,?,176.0,100538
100539,96-29-7,96-29-7,CCC(C)=NO,2-BUTANONE OXIME,2-Butanone oxime,N-hydroxybutan-2-imine,19616,DTXSID1021821,CCC(C)N=O,"InChI=1S/C4H9NO/c1-3-4(2)5-6/h4H,3H2,1-2H3",GRFXXWWBAWFSRF-UHFFFAOYSA-N,?,152.5,100539
100540,96-31-1,96-31-1,CNC(=O)NC,"DIMETHYLUREA, SYM","N,N'-Dimethylurea","1,3-dimethylurea",19617,DTXSID5025156,CNC(=O)NC,"InChI=1S/C3H8N2O/c1-4-3(6)5-2/h1-2H3,(H2,4,5,6)",MGJKQDOBUOMPEZ-UHFFFAOYSA-N,?,269.0,100540
100542,96-33-3,96-33-3,COC(=O)C=C,METHYL ACRYLATE,Methyl acrylate,methyl prop-2-enoate,19619,DTXSID0024183,COC(=O)C=C,"InChI=1S/C4H6O2/c1-3-4(5)6-2/h3H,1H2,2H3",BAPJBEWLBFYGME-UHFFFAOYSA-N,?,80.2,100542
100543,96-34-4,96-34-4,COC(=O)CCl,METHYL CHLOROACETATE,Methyl chloroacetate,methyl chloroacetate,19620,DTXSID9041576,COC(=O)CCl,"InChI=1S/C3H5ClO2/c1-6-3(5)2-4/h2H2,1H3",QABLOFMHHSOFRJ-UHFFFAOYSA-N,?,129.5,100543
100544,96-37-7,96-37-7,CC1CCCC1,METHYLCYCLOPENTANE,Methylcyclopentane,methylcyclopentane,19621,DTXSID3025590,CC1CCCC1,"InChI=1S/C6H12/c1-6-4-2-3-5-6/h6H,2-5H2,1H3",GDOPTJXRTPNYNR-UHFFFAOYSA-N,?,71.8,100544
100546,96-43-5,96-43-5,Clc1ccc[s]1,2-CHLOROTHIOPHENE,"Thiophene, 2-chloro-",2-Chlorothiophene,19623,DTXSID8059132,Clc1ccc[s]1,InChI=1S/C4H3ClS/c5-4-2-1-3-6-4/h1-3H,GSFNQBFZFXUTBN-UHFFFAOYSA-N,?,128.3,100546
100547,96-45-7,96-45-7,S=C1NCCN1,ETHYLENETHIOUREA,Ethylene thiourea,imidazolidine-2-thione,19624,DTXSID5020601,S=C1NCCN1,"InChI=1S/C3H6N2S/c6-3-4-1-2-5-3/h1-2H2,(H2,4,5,6)",PDQAZBWRQCGBEV-UHFFFAOYSA-N,?,347.18,100547
100548,96-47-9,96-47-9,CC1CCCO1,2-METHYLTETRAHYDROFURAN,2-Methyltetrahydrofuran,2-methyltetrahydrofuran,19625,DTXSID9030258,CC1CCCO1,"InChI=1S/C5H10O/c1-5-3-2-4-6-5/h5H,2-4H2,1H3",JWUJQDFVADABEY-UHFFFAOYSA-N,?,78.0,100548
100550,96-49-1,96-49-1,O=C1OCCO1,"1,3-DIOXOLAN-2-ONE","1,3-Dioxolan-2-one","1,3-dioxolan-2-one",19627,DTXSID2026600,O=C1OCCO1,InChI=1S/C3H4O3/c4-3-5-1-2-6-3/h1-2H2,KMTRUDSVKNLOMY-UHFFFAOYSA-N,?,248.0,100550
100551,96-54-8,96-54-8,C[n]1cccc1,N-METHYLPYRROLE,1-Methylpyrrole,1-methyl-1H-pyrrole,19628,DTXSID3052648,C[n]1cccc1,"InChI=1S/C5H7N/c1-6-4-2-3-5-6/h2-5H,1H3",OXHNLMTVIGZXSG-UHFFFAOYSA-N,?,115.0,100551
100552,96-64-0,96-64-0,CC(OP(C)(=O)F)C(C)(C)C,SOMAN,Pinacolyl methylphosphonofluoridate,"3,3-dimethylbutan-2-yl methylphosphonofluoridate",19629,DTXSID2031906,CC(OP(C)(=O)F)C(C)(C)C,"InChI=1S/C7H16FO2P/c1-6(7(2,3)4)10-11(5,8)9/h6H,1-5H3",GRXKLBBBQUKJJZ-UHFFFAOYSA-N,?,198.0,100552
100554,96-80-0,96-80-0,CC(C)N(CCO)C(C)C,2-(BIS(1-METHYLETHYL)AMINO)ETHANOL,2-(Diisopropylamino)ethanol,2-[di(propan-2-yl)amino]ethanol,19631,DTXSID6021822,CC(C)N(CCO)C(C)C,"InChI=1S/C8H19NO/c1-7(2)9(5-6-10)8(3)4/h7-8,10H,5-6H2,1-4H3",ZYWUVGFIXPNBDL-UHFFFAOYSA-N,?,190.0,100554
100555,97-00-7,97-00-7,[O-][N+](=O)c1cc(ccc1Cl)[N+]([O-])=O,"2,4-DINITROCHLOROBENZENE","1-Chloro-2,4-dinitrobenzene","1-chloro-2,4-dinitrobenzene",19632,DTXSID6020278,[O-][N+](=O)c1cc(ccc1Cl)[N+]([O-])=O,InChI=1S/C6H3ClN2O4/c7-5-2-1-4(8(10)11)3-6(5)9(12)13/h1-3H,VYZAHLCBVHPDDF-UHFFFAOYSA-N,?,315.0,100555
100556,97-02-9,97-02-9,Nc1ccc(cc1[N+]([O-])=O)[N+]([O-])=O,"2,4-DINITROANILINE","2,4-Dinitroaniline","2,4-dinitroaniline",19633,DTXSID1021823,Nc1ccc(cc1[N+]([O-])=O)[N+]([O-])=O,"InChI=1S/C6H5N3O4/c7-5-2-1-4(8(10)11)3-6(5)9(12)13/h1-3H,7H2",LXQOQPGNCGEELI-UHFFFAOYSA-N,?,333.6,100556
100558,97-54-1,97-54-1,CC=Cc1cc(OC)c(O)cc1,2-METHOXY-4-(1-PROPENYL)PHENOL,Isoeugenol,2-methoxy-4-(prop-1-en-1-yl)phenol,19635,DTXSID7022413,CC=Cc1cc(OC)c(O)cc1,"InChI=1S/C10H12O2/c1-3-4-8-5-6-9(11)10(7-8)12-2/h3-7,11H,1-2H3/b4-3+",BJIOGJUNALELMI-ONEGZZNKSA-N,?,266.0,100558
100559,97-61-0,97-61-0,CCCC(C)C(O)=O,"PENTANOIC ACID, 2-METHYL-",2-Methylpentanoic acid,2-methylpentanoic acid,19636,DTXSID9021633,CCCC(C)C(O)=O,"InChI=1S/C6H12O2/c1-3-4-5(2)6(7)8/h5H,3-4H2,1-2H3,(H,7,8)",OVBFMEVBMNZIBR-UHFFFAOYSA-N,?,196.5,100559
100560,97-62-1,97-62-1,CCOC(=O)C(C)C,ETHYL ISOBUTYRATE,Ethyl isobutyrate,ethyl 2-methylpropanoate,19637,DTXSID7047728,CCOC(=O)C(C)C,"InChI=1S/C6H12O2/c1-4-8-6(7)5(2)3/h5H,4H2,1-3H3",WDAXFOBOLVPGLV-UHFFFAOYSA-N,?,110.1,100560
100562,97-64-3,97-64-3,CCOC(=O)C(C)O,ETHYL LACTATE,Ethyl lactate,ethyl 2-hydroxypropanoate,19639,DTXSID6029127,CCOC(=O)C(C)O,"InChI=1S/C5H10O3/c1-3-8-5(7)4(2)6/h4,6H,3H2,1-2H3",LZCLXQDLBQLTDK-UHFFFAOYSA-N,?,154.0,100562
100563,97-72-3,97-72-3,CC(C)C(=O)OC(=O)C(C)C,"Propanoic acid, 2-methyl-, anhydride",Isobutyric anhydride,2-methylpropanoic anhydride,19640,DTXSID7026609,CC(C)C(=O)OC(=O)C(C)C,"InChI=1S/C8H14O3/c1-5(2)7(9)11-8(10)6(3)4/h5-6H,1-4H3",LSACYLWPPQLVSM-UHFFFAOYSA-N,?,183.0,100563
100564,97-84-7,97-84-7,CN(C)CCC(C)N(C)C,"N,N,N',N'-Tetramethyl-1,3-butanediamine","N,N,N',N'-Tetramethyl-1,3-butanediamine","N,N,N',N'-tetramethylbutane-1,3-diamine",19641,DTXSID0026121,CN(C)CCC(C)N(C)C,"InChI=1S/C8H20N2/c1-8(10(4)5)6-7-9(2)3/h8H,6-7H2,1-5H3",AXFVIWBTKYFOCY-UHFFFAOYSA-N,?,165.0,100564
100566,97-86-9,97-86-9,CC(=C)C(=O)OCC(C)C,"METHACRYLIC ACID, I-BUTYL ESTER",Isobutyl methacrylate,2-methylpropyl 2-methylprop-2-enoate,19643,DTXSID3025461,CC(=C)C(=O)OCC(C)C,"InChI=1S/C8H14O2/c1-6(2)5-10-8(9)7(3)4/h6H,3,5H2,1-2,4H3",RUMACXVDVNRZJZ-UHFFFAOYSA-N,?,155.0,100566
100567,97-87-0,97-87-0,CCCCOC(=O)C(C)C,"Isobutyric acid, butyl ester (6CI,7CI,8CI)","Propanoic acid, 2-methyl-, butyl ester",Butyl 2-methylpropanoate,19644,DTXSID9073888,CCCCOC(=O)C(C)C,"InChI=1S/C8H16O2/c1-4-5-6-10-8(9)7(2)3/h7H,4-6H2,1-3H3",JSLCOZYBKYHZNL-UHFFFAOYSA-N,?,155.0,100567
100568,97-88-1,97-88-1,CC(=C)C(=O)OCCCC,"METHACRYLIC ACID, N-BUTYL ESTER",Butyl methacrylate,butyl 2-methylprop-2-enoate,19645,DTXSID4024696,CC(=C)C(=O)OCCCC,"InChI=1S/C8H14O2/c1-4-5-6-10-8(9)7(2)3/h2,4-6H2,1,3H3",SOGAXMICEFXMKE-UHFFFAOYSA-N,?,160.0,100568
100571,97-95-0,97-95-0,CCC(CO)CC,2-ETHYL-1-BUTANOL,2-Ethyl-1-butanol,2-ethylbutan-1-ol,19647,DTXSID2041416,CCC(CO)CC,"InChI=1S/C6H14O/c1-3-6(4-2)5-7/h6-7H,3-5H2,1-2H3",TZYRSLHNPKPEFV-UHFFFAOYSA-N,?,147.0,100571
100572,97-97-2,97-97-2,COC(CCl)OC,"Ethane, 2-chloro-1,1-dimethoxy-","Ethane, 2-chloro-1,1-dimethoxy-","2-Chloro-1,1-dimethoxyethane",19648,DTXSID1059157,COC(CCl)OC,"InChI=1S/C4H9ClO2/c1-6-4(3-5)7-2/h4H,3H2,1-2H3",CRZJPEIBPQWDGJ-UHFFFAOYSA-N,?,127.5,100572