ChemID,source_casrn,CAS,SMILES,NAME,preferred_name,iupac,MPID,dsstox_substance_id,Canonical_QSARr,InChI_Code_QSARr,InChI Key_QSARr,Salt_Solvent,BP,ID
102126,540-08-9,540-08-9,CCCCCCCCC(=O)CCCCCCCC,9-HEPTADECANONE,9-Heptadecanone,Heptadecan-9-one,21154,DTXSID50202310,CCCCCCCCC(=O)CCCCCCCC,"InChI=1S/C17H34O/c1-3-5-7-9-11-13-15-17(18)16-14-12-10-8-6-4-2/h3-16H2,1-2H3",WTJKUFMLQFLJOT-UHFFFAOYSA-N,?,251.5,102126
102128,540-36-3,540-36-3,Fc1ccc(F)cc1,P-DIFLUOROBENZENE,"1,4-Difluorobenzene","1,4-Difluorobenzene",21156,DTXSID1075432,Fc1ccc(F)cc1,InChI=1S/C6H4F2/c7-5-1-2-6(8)4-3-5/h1-4H,QUGUFLJIAFISSW-UHFFFAOYSA-N,?,89.0,102128
102129,540-42-1,540-42-1,CCC(=O)OCC(C)C,2-METHYLPROPYL PROPANOATE,"Propanoic acid, 2-methylpropyl ester",2-METHYLPROPYL PROPANOATE,21157,DTXSID8060240,CCC(=O)OCC(C)C,"InChI=1S/C7H14O2/c1-4-7(8)9-5-6(2)3/h6H,4-5H2,1-3H3",FZXRXKLUIMKDEL-UHFFFAOYSA-N,?,137.0,102129
102130,540-47-6,540-47-6,COC1CC1,"Cyclopropane, methoxy-",Cyclopropyl methyl ether,Methoxycyclopropane,21158,DTXSID30202313,COC1CC1,"InChI=1S/C4H8O/c1-5-4-2-3-4/h4H,2-3H2,1H3",ZUVAACFIEPYYOP-UHFFFAOYSA-N,?,44.7,102130
102132,540-51-2,540-51-2,OCCBr,2-BROMOETHANOL,2-Bromo-1-ethanol,2-bromoethanol,21160,DTXSID8020200,OCCBr,"InChI=1S/C2H5BrO/c3-1-2-4/h4H,1-2H2",LDLCZOVUSADOIV-UHFFFAOYSA-N,?,150.0,102132
102133,540-54-5,540-54-5,CCCCl,1-CHLOROPROPANE,1-Chloropropane,1-chloropropane,21161,DTXSID3051462,CCCCl,"InChI=1S/C3H7Cl/c1-2-3-4/h2-3H2,1H3",SNMVRZFUUCLYTO-UHFFFAOYSA-N,?,46.5,102133
102134,540-59-0,540-59-0,ClC=CCl,"1,2-DICHLOROETHYLENE","(Z,E)-1,2-Dichloroethylene","1,2-dichloroethene",21162,DTXSID8024991,ClC=CCl,InChI=1S/C2H2Cl2/c3-1-2-4/h1-2H/b2-1-,KFUSEUYYWQURPO-UPHRSURJSA-N,?,55.0,102134
102136,540-67-0,540-67-0,CCOC,ETHYL METHYL ETHER,"Ethane, methoxy-",Methoxyethane,21164,DTXSID5074557,CCOC,"InChI=1S/C3H8O/c1-3-4-2/h3H2,1-2H3",XOBKSJJDNFUZPF-UHFFFAOYSA-N,?,7.4,102136
102137,540-73-8,540-73-8,CNNC,"1,2-DIMETHYLHYDRAZINE","1,2-Dimethylhydrazine","1,2-dimethylhydrazine",21165,DTXSID0041228,CNNC,"InChI=1S/C2H8N2/c1-3-4-2/h3-4H,1-2H3",DIIIISSCIXVANO-UHFFFAOYSA-N,?,81.0,102137
102138,540-80-7,540-80-7,CC(C)(C)ON=O,2-METHYL-2-PROPYLNITRIT,tert-Butyl nitrite,tert-Butyl nitrite,21166,DTXSID10202316,CC(C)(C)ON=O,"InChI=1S/C4H9NO2/c1-4(2,3)7-5-6/h1-3H3",IOGXOCVLYRDXLW-UHFFFAOYSA-N,?,63.0,102138
102140,540-88-5,540-88-5,CC(=O)OC(C)(C)C,T-BUTYL ACETATE,tert-Butyl acetate,tert-butyl acetate,21168,DTXSID1022055,CC(=O)OC(C)(C)C,"InChI=1S/C6H12O2/c1-5(7)8-6(2,3)4/h1-4H3",WMOVHXAZOJBABW-UHFFFAOYSA-N,?,97.0,102140
102141,540-97-6,540-97-6,C[Si]1(C)O[Si](C)(C)O[Si](C)(C)O[Si](C)(C)O[Si](C)(C)O[Si](C)(C)O1,DODECAMETHYLCYCLOHEXASILOXANE,Dodecamethylcyclohexasiloxane,dodecamethylcyclohexasiloxane,21169,DTXSID6027183,C[Si]1(C)O[Si](C)(C)O[Si](C)(C)O[Si](C)(C)O[Si](C)(C)O[Si](C)(C)O1,"InChI=1S/C12H36O6Si6/c1-19(2)13-20(3,4)15-22(7,8)17-24(11,12)18-23(9,10)16-21(5,6)14-19/h1-12H3",IUMSDRXLFWAGNT-UHFFFAOYSA-N,?,245.0,102141
102142,541-01-5,541-01-5,C[Si](C)(C)O[Si](C)(C)O[Si](C)(C)O[Si](C)(C)O[Si](C)(C)O[Si](C)(C)O[Si](C)(C)C,HEXADECAMETHYLHEPTASILOXANE,"Heptasiloxane, hexadecamethyl-",bis[[(dimethyl-trimethylsilyloxysilyl)oxy-dimethylsilyl]oxy]-dimethylsilane,21170,DTXSID8060242,C[Si](C)(C)O[Si](C)(C)O[Si](C)(C)O[Si](C)(C)O[Si](C)(C)O[Si](C)(C)O[Si](C)(C)C,"InChI=1S/C16H48O6Si7/c1-23(2,3)17-25(7,8)19-27(11,12)21-29(15,16)22-28(13,14)20-26(9,10)18-24(4,5)6/h1-16H3",NFVSFLUJRHRSJG-UHFFFAOYSA-N,?,270.0,102142
102144,541-05-9,541-05-9,C[Si]1(C)O[Si](C)(C)O[Si](C)(C)O1,HEXAMETHYLCYCLOTRISILOXANE,Hexamethylcyclotrisiloxane,"2,2,4,4,6,6-hexamethyl-1,3,5,2,4,6-trioxatrisilinane",21172,DTXSID6027185,C[Si]1(C)O[Si](C)(C)O[Si](C)(C)O1,"InChI=1S/C6H18O3Si3/c1-10(2)7-11(3,4)9-12(5,6)8-10/h1-6H3",HTDJPCNNEPUOOQ-UHFFFAOYSA-N,?,134.0,102144
102145,541-25-3,541-25-3,ClC=C[As](Cl)Cl,DICHLORO(2-CHLOROVINYL)ARSINE (TRANS),Lewisite,,21173,DTXSID3060245,ClC=C[As](Cl)Cl,InChI=1S/C2H2AsCl3/c4-2-1-3(5)6/h1-2H/b2-1-,GIKLTQKNOXNBNY-UPHRSURJSA-N,?,190.0,102145
102146,541-28-6,541-28-6,CC(C)CCI,"Butane, 1-iodo-3-methyl-","Butane, 1-iodo-3-methyl-",1-Iodo-3-methylbutane,21174,DTXSID8060246,CC(C)CCI,"InChI=1S/C5H11I/c1-5(2)3-4-6/h5H,3-4H2,1-2H3",BUZZUHJODKQYTF-UHFFFAOYSA-N,?,147.0,102146
102148,541-33-3,NOCAS_862152,CCCC(Cl)Cl,"1,1-DICHLOROBUTANE",,,21176,DTXSID70862152,CCCC(Cl)Cl,"InChI=1S/C4H8Cl2/c1-2-3-4(5)6/h4H,2-3H2,1H3",SEQRDAAUNCRFIT-UHFFFAOYSA-N,?,113.8,102148
102149,541-35-5,541-35-5,CCCC(N)=O,BUTYRAMIDE,Butanamide,Butanamide,21177,DTXSID8060248,CCCC(N)=O,"InChI=1S/C4H9NO/c1-2-3-4(5)6/h2-3H2,1H3,(H2,5,6)",DNSISZSEWVHGLH-UHFFFAOYSA-N,?,216.0,102149
102150,541-41-3,541-41-3,CCOC(=O)Cl,ETHYL CHLOROCARBONATE,Ethyl chloroformate,ethyl carbonochloridate,21178,DTXSID1027186,CCOC(=O)Cl,"InChI=1S/C3H5ClO2/c1-2-6-3(4)5/h2H2,1H3",RIFGWPKJUGCATF-UHFFFAOYSA-N,?,95.0,102150
102152,541-46-8,541-46-8,CC(C)CC(N)=O,"Butanamide, 3-methyl-","Butanamide, 3-methyl-",3-Methylbutanamide,21180,DTXSID3060249,CC(C)CC(N)=O,"InChI=1S/C5H11NO/c1-4(2)3-5(6)7/h4H,3H2,1-2H3,(H2,6,7)",SANOUVWGPVYVAV-UHFFFAOYSA-N,?,226.0,102152
102153,541-47-9,541-47-9,CC(C)=CC(O)=O,"2-Butenoic acid, 3-methyl-","3,3-Dimethylacrylic acid",3-methylbut-2-enoic acid,21181,DTXSID2047145,CC(C)=CC(O)=O,"InChI=1S/C5H8O2/c1-4(2)3-5(6)7/h3H,1-2H3,(H,6,7)",YYPNJNDODFVZLE-UHFFFAOYSA-N,?,197.0,102153
102154,541-58-2,541-58-2,Cc1[n]c(C)c[s]1,"2,4-DIMETHYLTHIAZOLE","Thiazole, 2,4-dimethyl-","2,4-dimethyl-1,3-thiazole",21182,DTXSID2060250,Cc1[n]c(C)c[s]1,"InChI=1S/C5H7NS/c1-4-3-7-5(2)6-4/h3H,1-2H3",OBSLLHNATPQFMJ-UHFFFAOYSA-N,?,146.0,102154
102156,541-85-5,541-85-5,CC(CC(=O)CC)CC,ETHYL AMYLKETONE,5-Methyl-3-heptanone,5-methylheptan-3-one,21184,DTXSID9047047,CC(CC(=O)CC)CC,"InChI=1S/C8H16O/c1-4-7(3)6-8(9)5-2/h7H,4-6H2,1-3H3",PSBKJPTZCVYXSD-UHFFFAOYSA-N,?,159.0,102156
102157,541-88-8,NOCAS_870600,O=C(CCl)OC(=O)CCl,CHLOROACETIC ANHYDRIDE,,,21185,DTXSID60870600,O=C(CCl)OC(=O)CCl,InChI=1S/C4H4Cl2O3/c5-1-3(7)9-4(8)2-6/h1-2H2,PNVPNXKRAUBJGW-UHFFFAOYSA-N,?,203.0,102157
102158,541-91-3,541-91-3,CC1CC(=O)CCCCCCCCCCCC1,"Cyclopentadecanone, 3-methyl-",3-Methylcyclopentadecan-1-one,3-methylcyclopentadecanone,21186,DTXSID8052192,CC1CC(=O)CCCCCCCCCCCC1,"InChI=1S/C16H30O/c1-15-12-10-8-6-4-2-3-5-7-9-11-13-16(17)14-15/h15H,2-14H2,1H3",ALHUZKCOMYUFRB-UHFFFAOYSA-N,?,329.0,102158
102160,542-10-9,542-10-9,CC(OC(C)=O)OC(C)=O,"1,1-Ethanediol, diacetate","1,1-Ethanediol diacetate","ethane-1,1-diyl diacetate",21188,DTXSID1027188,CC(OC(C)=O)OC(C)=O,"InChI=1S/C6H10O4/c1-4(7)9-6(3)10-5(2)8/h6H,1-3H3",ACKALUBLCWJVNB-UHFFFAOYSA-N,?,169.0,102160
102161,542-18-7,542-18-7,ClC1CCCCC1,CHLOROCYCLOHEXANE,Chlorocyclohexane,chlorocyclohexane,21189,DTXSID3052193,ClC1CCCCC1,"InChI=1S/C6H11Cl/c7-6-4-2-1-3-5-6/h6H,1-5H2",UNFUYWDGSFDHCW-UHFFFAOYSA-N,?,142.0,102161
102162,542-28-9,542-28-9,O=C1CCCCO1,D-VALEROLACTONE,Tetrahydro-2H-pyran-2-one,tetrahydro-2H-pyran-2-one,21190,DTXSID6044438,O=C1CCCCO1,InChI=1S/C5H8O2/c6-5-3-1-2-4-7-5/h1-4H2,OZJPLYNZGCXSJM-UHFFFAOYSA-N,?,219.0,102162
102164,542-52-9,542-52-9,CCCCOC(=O)OCCCC,"Carbonic acid, dibutyl ester","Carbonic acid, dibutyl ester",Dibutyl carbonate,21192,DTXSID7060255,CCCCOC(=O)OCCCC,"InChI=1S/C9H18O3/c1-3-5-7-11-9(10)12-8-6-4-2/h3-8H2,1-2H3",QLVWOKQMDLQXNN-UHFFFAOYSA-N,?,170.0,102164
102165,542-54-1,542-54-1,CC(C)CCC#N,4-METHYLPENTANITRILE,"Pentanenitrile, 4-methyl-",4-Methylpentanenitrile,21193,DTXSID2060256,CC(C)CCC#N,"InChI=1S/C6H11N/c1-6(2)4-3-5-7/h6H,3-4H2,1-2H3",DUJMVKJJUANUMQ-UHFFFAOYSA-N,?,156.5,102165
102166,542-55-2,542-55-2,CC(C)COC=O,ISOBUTYL FORMATE,"Formic acid, 2-methylpropyl ester",2-Methylpropyl formate,21194,DTXSID7060257,CC(C)COC=O,"InChI=1S/C5H10O2/c1-5(2)3-7-4-6/h4-5H,3H2,1-2H3",AVMSWPWPYJVYKY-UHFFFAOYSA-N,?,98.2,102166
102168,542-58-5,542-58-5,CC(=O)OCCCl,"Ethanol, 2-chloro-, acetate",,,21196,DTXSID40878740,CC(=O)OCCCl,"InChI=1S/C4H7ClO2/c1-4(6)7-3-2-5/h2-3H2,1H3",VIRWKAJWTKAIMA-UHFFFAOYSA-N,?,145.0,102168
102169,542-59-6,NOCAS_862156,CC(=O)OCCO,"1,2-Ethanediol, monoacetate",,,21197,DTXSID10862156,CC(=O)OCCO,"InChI=1S/C4H8O3/c1-4(6)7-3-2-5/h5H,2-3H2,1H3",HXDLWJWIAHWIKI-UHFFFAOYSA-N,?,188.0,102169
102170,542-69-8,NOCAS_862157,CCCCI,N-BUTYL IODIDE,,,21198,DTXSID70862157,CCCCI,"InChI=1S/C4H9I/c1-2-3-4-5/h2-4H2,1H3",KMGBZBJJOKUPIA-UHFFFAOYSA-N,?,130.6,102170
102172,542-76-7,542-76-7,N#CCCCl,3-CHLOROPROPIONITRILE,3-Chloropropionitrile,3-chloropropanenitrile,21200,DTXSID4030336,N#CCCCl,InChI=1S/C3H4ClN/c4-2-1-3-5/h1-2H2,GNHMRTZZNHZDDM-UHFFFAOYSA-N,?,175.5,102172
102173,542-85-8,542-85-8,CCN=C=S,ETHYL ISOTHIOCYANATE,"Ethane, isothiocyanato-",Isothiocyanatoethane,21201,DTXSID2060258,CCN=C=S,"InChI=1S/C3H5NS/c1-2-4-3-5/h2H2,1H3",HBNYJWAFDZLWRS-UHFFFAOYSA-N,?,131.5,102173
102174,542-88-1,542-88-1,ClCOCCl,BIS(CHLOROMETHYL) ETHER,Bis(chloromethyl) ether,bis(chloromethyl) ether,21202,DTXSID8020173,ClCOCCl,InChI=1S/C2H4Cl2O/c3-1-5-2-4/h1-2H2,HRQGCQVOJVTVLU-UHFFFAOYSA-N,?,106.0,102174
102176,542-91-6,NOCAS_870601,CC[SiH2]CC,"Silane, diethyl-",,,21204,DTXSID20870601,CC[SiH2]CC,"InChI=1S/C4H12Si/c1-3-5-4-2/h3-5H2,1-2H3",UCXUKTLCVSGCNR-UHFFFAOYSA-N,?,57.0,102176
102177,542-92-7,542-92-7,C1C=CC=C1,CYCLOPENTADIENE,"1,3-Cyclopentadiene","cyclopenta-1,3-diene",21205,DTXSID0027191,C1C=CC=C1,"InChI=1S/C5H6/c1-2-4-5-3-1/h1-4H,5H2",ZSWFCLXCOIISFI-UHFFFAOYSA-N,?,41.0,102177
102178,543-20-4,543-20-4,O=C(Cl)CCC(=O)Cl,SUCCINYL CHLORIDE,Butanedioyl dichloride,Butanedioyl dichloride,21206,DTXSID6060260,O=C(Cl)CCC(=O)Cl,InChI=1S/C4H4Cl2O2/c5-3(7)1-2-4(6)8/h1-2H2,IRXBNHGNHKNOJI-UHFFFAOYSA-N,?,193.3,102178
102180,543-28-2,543-28-2,CC(C)COC(N)=O,"Carbamic acid, 2-methylpropyl ester","Carbamic acid, 2-methylpropyl ester",2-methylpropyl carbamate,21208,DTXSID6060262,CC(C)COC(N)=O,"InChI=1S/C5H11NO2/c1-4(2)3-8-5(6)7/h4H,3H2,1-2H3,(H2,6,7)",BRUZQRBVNRKLJG-UHFFFAOYSA-N,?,207.0,102180
102181,543-29-3,543-29-3,CC(C)CO[N+]([O-])=O,ISOBUTYL NITRATE,Isobutyl nitrate,2-methylpropyl nitrate,21209,DTXSID70202655,CC(C)CO[N+]([O-])=O,"InChI=1S/C4H9NO3/c1-4(2)3-8-5(6)7/h4H,3H2,1-2H3",LNNXFUZKZLXPOF-UHFFFAOYSA-N,?,123.4,102181
102182,543-49-7,543-49-7,CCCCCC(C)O,2-HEPTANOL,2-Heptanol,heptan-2-ol,21210,DTXSID1047158,CCCCCC(C)O,"InChI=1S/C7H16O/c1-3-4-5-6-7(2)8/h7-8H,3-6H2,1-2H3",CETWDUZRCINIHU-UHFFFAOYSA-N,?,159.0,102182
102185,543-75-9,543-75-9,C1COC=CO1,"1,4-DIOXIN, 2,3-DIHYDRO-","1,4-Dioxin, 2,3-dihydro-","2,3-dihydro-1,4-dioxine",21212,DTXSID0074714,C1COC=CO1,"InChI=1S/C4H6O2/c1-2-6-4-3-5-1/h1-2H,3-4H2",HIZVCIIORGCREW-UHFFFAOYSA-N,?,94.1,102185
102186,543-82-8|5984-58-7,543-82-8,CC(C)CCCC(C)N,"Octodrine, 1,5-Dimethyl-hexylamine",2-Amino-6-methylheptane,6-methylheptan-2-amine,21213|23863,DTXSID8046535,CC(C)CCCC(C)N,"InChI=1S/C8H19N/c1-7(2)5-4-6-8(3)9/h7-8H,4-6,9H2,1-3H3",QNIVIMYXGGFTAK-UHFFFAOYSA-N,?,155.0,102186
102188,543-87-3|21981-48-6,543-87-3,CC(C)CCO[N+]([O-])=O,"1-BUTANOL, 3-METHYL-, NITRATE, ISOPENTYL NITRATE",Isoamyl nitrate,3-Methylbutyl nitrate,21214|24403,DTXSID70110029,CC(C)CCO[N+]([O-])=O,"InChI=1S/C5H11NO3/c1-5(2)3-4-9-6(7)8/h5H,3-4H2,1-2H3",NTHGIYFSMNNHSC-UHFFFAOYSA-N,?,146.0,102188
102190,544-01-4,544-01-4,CC(C)CCOCCC(C)C,DIISOPENTYL ETHER,Isoamyl ether,bis(3-methylbutyl) ether,21216,DTXSID8052198,CC(C)CCOCCC(C)C,"InChI=1S/C10H22O/c1-9(2)5-7-11-8-6-10(3)4/h9-10H,5-8H2,1-4H3",AQZGPSLYZOOYQP-UHFFFAOYSA-N,?,172.5,102190
102191,544-02-5,544-02-5,CC(C)CCSCCC(C)C,DIISOAMYL SULFIDE,"Butane, 1,1'-thiobis[3-methyl-",3-methyl-1-(3-methylbutylsulfanyl)butane,21217,DTXSID6060264,CC(C)CCSCCC(C)C,"InChI=1S/C10H22S/c1-9(2)5-7-11-8-6-10(3)4/h9-10H,5-8H2,1-4H3",JWEWNTJADCWFRP-UHFFFAOYSA-N,?,211.0,102191
102192,544-10-5,544-10-5,CCCCCCCl,1-CHLOROHEXANE,1-Chlorohexane,1-CHLOROHEXANE,21218,DTXSID1060265,CCCCCCCl,"InChI=1S/C6H13Cl/c1-2-3-4-5-6-7/h2-6H2,1H3",MLRVZFYXUZQSRU-UHFFFAOYSA-N,?,135.0,102192
102194,544-13-8,544-13-8,N#CCCCC#N,PENTANEDINITRILE,Pentanedinitrile,Pentanedinitrile,21220,DTXSID6060266,N#CCCCC#N,InChI=1S/C5H6N2/c6-4-2-1-3-5-7/h1-3H2,ZTOMUSMDRMJOTH-UHFFFAOYSA-N,?,286.0,102194
102195,544-16-1,544-16-1,CCCCON=O,1-BUTYLNITRITE,N-Butylnitrite,butyl nitrite,21221,DTXSID8049418,CCCCON=O,"InChI=1S/C4H9NO2/c1-2-3-4-7-5-6/h2-4H2,1H3",JQJPBYFTQAANLE-UHFFFAOYSA-N,?,78.0,102195
102196,544-25-2,544-25-2,C1C=CC=CC=C1,CYCLOHEPTATRIENE,"1,3,5-Cycloheptatriene","cyclohepta-1,3,5-triene",21222,DTXSID5073909,C1C=CC=CC=C1,"InChI=1S/C7H8/c1-2-4-6-7-5-3-1/h1-6H,7H2",CHVJITGCYZJHLR-UHFFFAOYSA-N,?,117.0,102196
102198,544-63-8,544-63-8,CCCCCCCCCCCCCC(O)=O,TETRADECANOIC ACID,Tetradecanoic acid,tetradecanoic acid,21224,DTXSID6021666,CCCCCCCCCCCCCC(O)=O,"InChI=1S/C14H28O2/c1-2-3-4-5-6-7-8-9-10-11-12-13-14(15)16/h2-13H2,1H3,(H,15,16)",TUNFSRHWOTWDNC-UHFFFAOYSA-N,?,326.2,102198
102199,544-76-3,544-76-3,CCCCCCCCCCCCCCCC,N-HEXADECANE,Hexadecane,hexadecane,21225,DTXSID0027195,CCCCCCCCCCCCCCCC,"InChI=1S/C16H34/c1-3-5-7-9-11-13-15-16-14-12-10-8-6-4-2/h3-16H2,1-2H3",DCAYPVUWAIABOU-UHFFFAOYSA-N,?,286.8,102199
102200,544-85-4,544-85-4,CCCCCCCCCCCCCCCCCCCCCCCCCCCCCCCC,DOTRIACONTANE,Dotriacontane,dotriacontane,21226,DTXSID5052202,CCCCCCCCCCCCCCCCCCCCCCCCCCCCCCCC,"InChI=1S/C32H66/c1-3-5-7-9-11-13-15-17-19-21-23-25-27-29-31-32-30-28-26-24-22-20-18-16-14-12-10-8-6-4-2/h3-32H2,1-2H3",QHMGJGNTMQDRQA-UHFFFAOYSA-N,?,467.0,102200
102203,546-43-0,546-43-0,C[C@H]1CCC[C@]2(C)C[C@H]3OC(=O)C(=C)[C@H]3C=C21,ALANTOLACTONE,,,21228,DTXSID90877864,CC1CCCC2(C)CC3OC(=O)C(=C)C3C=C21,"InChI=1S/C15H20O2/c1-9-5-4-6-15(3)8-13-11(7-12(9)15)10(2)14(16)17-13/h7,9,11,13H,2,4-6,8H2,1,3H3",PXOYOCNNSUAQNS-UHFFFAOYSA-N,?,275.0,102203
102204,546-80-5,546-80-5,CC(C)[C@@]12C[C@@H]1[C@@H](C)C(=O)C2,THUJONE,alpha-Thujone,"(1S,4R,5R)-4-methyl-1-(propan-2-yl)bicyclo[3.1.0]hexan-3-one",21229,DTXSID3026148,CC(C)C12CC1C(C)C(=O)C2,"InChI=1S/C10H16O/c1-6(2)10-4-8(10)7(3)9(11)5-10/h6-8H,4-5H2,1-3H3",USMNOWBWPHYOEA-UHFFFAOYSA-N,?,203.0,102204
102205,547-63-7,547-63-7,COC(=O)C(C)C,METHYL ISOBUTYRATE,"Propanoic acid, 2-methyl-, methyl ester",Methyl 2-methylpropanoate,21230,DTXSID5060275,COC(=O)C(C)C,"InChI=1S/C5H10O2/c1-4(2)5(6)7-3/h4H,1-3H3",BHIWKHZACMWKOJ-UHFFFAOYSA-N,?,92.5,102205
102208,551-62-2,NOCAS_870605,Fc1ccc(F)c(F)c1F,"1,2,3,4-TETRAFLUOROBENZENE",,,21232,DTXSID60870605,Fc1ccc(F)c(F)c1F,InChI=1S/C6H2F4/c7-3-1-2-4(8)6(10)5(3)9/h1-2H,SOZFIIXUNAKEJP-UHFFFAOYSA-N,?,94.3,102208
102209,551-76-8,551-76-8,Cc1c(Cl)cc(Cl)c(O)c1Cl,"2,4,6-TRICHLORO-3-METHYLPHENOL","2,4,6-Trichloro-m-cresol","2,4,6-TRICHLORO-3-METHYLPHENOL",21233,DTXSID30203623,Cc1c(Cl)cc(Cl)c(O)c1Cl,"InChI=1S/C7H5Cl3O/c1-3-4(8)2-5(9)7(11)6(3)10/h2,11H,1H3",QTAATZDGGZYBDC-UHFFFAOYSA-N,?,265.0,102209
102210,552-30-7,552-30-7,OC(=O)c1cc2c(cc1)C(=O)OC2=O,TRIMELLITIC ANHYDRIDE,Trimellitic anhydride,"1,3-dioxo-1,3-dihydro-2-benzofuran-5-carboxylic acid",21234,DTXSID7026235,OC(=O)c1cc2c(cc1)C(=O)OC2=O,"InChI=1S/C9H4O5/c10-7(11)4-1-2-5-6(3-4)9(13)14-8(5)12/h1-3H,(H,10,11)",SRPWOOOHEPICQU-UHFFFAOYSA-N,?,390.0,102210
102212,552-70-5,NOCAS_870606,CN1C2CC(=O)CC1CCC2,9-Methyl-9-azabicyclo[3.3.1]nonan-3-one,,,21236,DTXSID20870606,CN1C2CC(=O)CC1CCC2,"InChI=1S/C9H15NO/c1-10-7-3-2-4-8(10)6-9(11)5-7/h7-8H,2-6H2,1H3",RHWSKVCZXBAWLZ-UHFFFAOYSA-N,?,246.0,102212
102213,552-82-9,552-82-9,CN(c1ccccc1)c1ccccc1,DIPHENYL METHYLAMINE,"Benzenamine, N-methyl-N-phenyl-",N-Methyl-N-phenylaniline,21237,DTXSID4060284,CN(c1ccccc1)c1ccccc1,"InChI=1S/C13H13N/c1-14(12-8-4-2-5-9-12)13-10-6-3-7-11-13/h2-11H,1H3",DYFFAVRFJWYYQO-UHFFFAOYSA-N,?,293.5,102213
102214,553-26-4,553-26-4,c1c[n]ccc1-c1cc[n]cc1,"4,4'-DIPYRIDYL","4,4'-Bipyridine","4,4'-bipyridine",21238,DTXSID2027200,c1c[n]ccc1-c1cc[n]cc1,InChI=1S/C10H8N2/c1-5-11-6-2-9(1)10-3-7-12-8-4-10/h1-8H,MWVTWFVJZLCBMC-UHFFFAOYSA-N,?,305.0,102214
102216,553-84-4,553-84-4,CC(C)CCC(=O)c1ccoc1,"1-PENTANONE, 1-(3-FURANYL)-4-METHYL-",Perilla ketone,1-furan-3-yl-4-methylpentan-1-one,21240,DTXSID10203828,CC(C)CCC(=O)c1ccoc1,"InChI=1S/C10H14O2/c1-8(2)3-4-10(11)9-5-6-12-7-9/h5-8H,3-4H2,1-2H3",LVHLZMUFIYAEQB-UHFFFAOYSA-N,?,196.0,102216
102217,553-86-6,553-86-6,O=C1Cc2ccccc2O1,3H-Benzofuran-2-one,(3H)-Benzofuran-2-one,3H-1-benzofuran-2-one,21241,DTXSID70203829,O=C1Cc2ccccc2O1,"InChI=1S/C8H6O2/c9-8-5-6-3-1-2-4-7(6)10-8/h1-4H,5H2",ACZGCWSMSTYWDQ-UHFFFAOYSA-N,?,249.0,102217
102218,553-90-2,553-90-2,COC(=O)C(=O)OC,METHYL OXALATE,"Ethanedioic acid, dimethyl ester",Dimethyl oxalate,21242,DTXSID9060287,COC(=O)C(=O)OC,InChI=1S/C4H6O4/c1-7-3(5)4(6)8-2/h1-2H3,LOMVENUNSWAXEN-UHFFFAOYSA-N,?,163.5,102218
102220,554-00-7,554-00-7,Nc1ccc(Cl)cc1Cl,"2,4-DICHLOROANILINE","2,4-Dichloroaniline","2,4-dichloroaniline",21244,DTXSID1024966,Nc1ccc(Cl)cc1Cl,"InChI=1S/C6H5Cl2N/c7-4-1-2-6(9)5(8)3-4/h1-3H,9H2",KQCMTOWTPBNWDB-UHFFFAOYSA-N,?,245.0,102220
102221,554-12-1,554-12-1,CCC(=O)OC,METHYL PROPIONATE,Methyl propanoate,methyl propanoate,21245,DTXSID7027201,CCC(=O)OC,"InChI=1S/C4H8O2/c1-3-4(5)6-2/h3H2,1-2H3",RJUFJBKOKNCXHH-UHFFFAOYSA-N,?,79.8,102221
102222,554-14-3,554-14-3,Cc1ccc[s]1,2-METHYLTHIOPHENE,"Thiophene, 2-methyl-",2-METHYLTHIOPHENE,21246,DTXSID3060291,Cc1ccc[s]1,"InChI=1S/C5H6S/c1-5-3-2-4-6-5/h2-4H,1H3",XQQBUAPQHNYYRS-UHFFFAOYSA-N,?,112.6,102222
102226,555-03-3,555-03-3,COc1cc(ccc1)[N+]([O-])=O,M-NITROANISOLE,"Benzene, 1-methoxy-3-nitro-",1-Methoxy-3-nitrobenzene,21248,DTXSID3060295,COc1cc(ccc1)[N+]([O-])=O,"InChI=1S/C7H7NO3/c1-11-7-4-2-3-6(5-7)8(9)10/h2-5H,1H3",WGYFINWERLNPHR-UHFFFAOYSA-N,?,258.0,102226
102227,555-10-2,555-10-2,CC(C)C1CCC(=C)C=C1,BETA-PHELLANDRENE,3-Methylidene-6-(propan-2-yl)cyclohexene,3-isopropyl-6-methylenecyclohexene,21249,DTXSID4052215,CC(C)C1CCC(=C)C=C1,"InChI=1S/C10H16/c1-8(2)10-6-4-9(3)5-7-10/h4,6,8,10H,3,5,7H2,1-2H3",LFJQCDVYDGGFCH-UHFFFAOYSA-N,?,171.5,102227
102228,556-24-1,556-24-1,COC(=O)CC(C)C,METHYL (3-METHYL)BUTANOATE,"Butanoic acid, 3-methyl-, methyl ester",Methyl 3-methylbutanoate,21250,DTXSID5060300,COC(=O)CC(C)C,"InChI=1S/C6H12O2/c1-5(2)4-6(7)8-3/h5H,4H2,1-3H3",OQAGVSWESNCJJT-UHFFFAOYSA-N,?,116.5,102228
102230,556-61-6,556-61-6,CN=C=S,METHYL ISOTHIOCYANATE,Methyl isothiocyanate,isothiocyanatomethane,21252,DTXSID2027204,CN=C=S,InChI=1S/C2H3NS/c1-3-2-4/h1H3,LGDSHSYDSCRFAB-UHFFFAOYSA-N,?,119.0,102230
102231,556-64-9,556-64-9,CSC#N,METHYL THIOCYANATE,Methyl thiocyanate,azanylidyne-methylsulfanylmethane,21253,DTXSID5060304,CSC#N,InChI=1S/C2H3NS/c1-4-2-3/h1H3,VYHVQEYOFIYNJP-UHFFFAOYSA-N,?,132.9,102231
102232,556-67-2,556-67-2,C[Si]1(C)O[Si](C)(C)O[Si](C)(C)O[Si](C)(C)O1,OCTAMETHYLTETRASILOXANE,Octamethylcyclotetrasiloxane,"2,2,4,4,6,6,8,8-octamethyl-1,3,5,7,2,4,6,8-tetroxatetrasilocane",21254,DTXSID7027205,C[Si]1(C)O[Si](C)(C)O[Si](C)(C)O[Si](C)(C)O1,"InChI=1S/C8H24O4Si4/c1-13(2)9-14(3,4)11-16(7,8)12-15(5,6)10-13/h1-8H3",HMMGMWAXVFQUOA-UHFFFAOYSA-N,?,175.8,102232
102234,556-82-1,556-82-1,CC(C)=CCO,"2-Buten-1-ol, 3-methyl-",3-Methyl-2-buten-1-ol,3-methylbut-2-en-1-ol,21256,DTXSID2027206,CC(C)=CCO,"InChI=1S/C5H10O/c1-5(2)3-4-6/h3,6H,4H2,1-2H3",ASUAYTHWZCLXAN-UHFFFAOYSA-N,?,140.0,102234
102235,556-96-7,556-96-7,Cc1cc(Br)cc(C)c1,"BENZENE, 1-BROMO-3,5-DIMETHYL-","Benzene, 1-bromo-3,5-dimethyl-","1-bromo-3,5-dimethylbenzene",21257,DTXSID00204142,Cc1cc(Br)cc(C)c1,"InChI=1S/C8H9Br/c1-6-3-7(2)5-8(9)4-6/h3-5H,1-2H3",LMFRTSBQRLSJHC-UHFFFAOYSA-N,?,204.0,102235
102236,557-00-6,557-00-6,CCCOC(=O)CC(C)C,PROPYL ISOVALERATE,Propyl isovalerate,Propyl 3-methylbutanoate,21258,DTXSID70204230,CCCOC(=O)CC(C)C,"InChI=1S/C8H16O2/c1-4-5-10-8(9)6-7(2)3/h7H,4-6H2,1-3H3",LSJMDWFAADPNAX-UHFFFAOYSA-N,?,155.9,102236
102240,557-31-3,557-31-3,CCOCC=C,ALLYL ETHYL ETHER,"1-Propene, 3-ethoxy-",3-ethoxyprop-1-ene,21260,DTXSID4060319,CCOCC=C,"InChI=1S/C5H10O/c1-3-5-6-4-2/h3H,1,4-5H2,2H3",OJPSFJLSZZTSDF-UHFFFAOYSA-N,?,67.6,102240
102241,557-36-8,1809-04-7,CCCCCC[C@H](C)I,2-IODOOCTANE,"2-Iodooctane, (+)-",?,21261,DTXSID20171024,CCCCCCC(C)I,"InChI=1S/C8H17I/c1-3-4-5-6-7-8(2)9/h8H,3-7H2,1-2H3",XFLOGTUFKZCFTK-UHFFFAOYSA-N,?,210.0,102241
102242,557-40-4,557-40-4,C=CCOCC=C,ALLYL ETHER,"1-Propene, 3,3'-oxybis-",3-prop-2-enoxyprop-1-ene,21262,DTXSID8060321,C=CCOCC=C,"InChI=1S/C6H10O/c1-3-5-7-6-4-2/h3-4H,1-2,5-6H2",ATVJXMYDOSMEPO-UHFFFAOYSA-N,?,94.0,102242