ChemID,source_casrn,CAS,SMILES,NAME,preferred_name,iupac,MPID,dsstox_substance_id,Canonical_QSARr,InChI_Code_QSARr,InChI Key_QSARr,Salt_Solvent,Salt_Solvent_ID,MP,ID
102137,114-49-8,114-49-8,Br.CN1[C@@H]2C[C@H](C[C@H]1[C@@H]1O[C@@H]12)OC(=O)[C@H](CO)c1ccccc1,SCOPOLAMINE BROMIDE,Scopolamine hydrobromide,"(1R,2R,4S,5S,7s)-9-methyl-3-oxa-9-azatricyclo[3.3.1.0~2,4~]non-7-yl (2S)-3-hydroxy-2-phenylpropanoate hydrobromide (1:1)",29390,DTXSID0032029,CN1C2CC(CC1C1OC12)OC(=O)C(CO)c1ccccc1,"InChI=1S/C17H21NO4/c1-18-13-7-11(8-14(18)16-15(13)22-16)21-17(20)12(9-19)10-5-3-2-4-6-10/h2-6,11-16,19H,7-9H2,1H3",STECJAGHUSJQJN-UHFFFAOYSA-N,Br,1731.0,196.5,102137
102141,115-02-6,115-02-6,[N-]=[N+]=CC(=O)OC[C@H](N)C(O)=O,AZASERINE,Azaserine,O-(diazoacetyl)-L-serine,29394,DTXSID9020118,NC(COC(=O)C=[N+]=N)C(O)=O,"InChI=1S/C5H7N3O4/c6-3(5(10)11)2-12-4(9)1-8-7/h1,3,7H,2,6H2/p+1",LMTILILZEHPNAP-UHFFFAOYSA-O,?,,154.0,102141
102146,115-11-7,115-11-7,CC(C)=C,ISOBUTENE,Isobutene,2-methylprop-1-ene,29398,DTXSID9020748,CC(C)=C,"InChI=1S/C4H8/c1-4(2)3/h1H2,2-3H3",VQTUBCCKSQIDNK-UHFFFAOYSA-N,?,,-140.4,102146
102150,115-20-8,115-20-8,OCC(Cl)(Cl)Cl,"2,2,2-TRICHLOROETHANOL","2,2,2-Trichloroethanol","2,2,2-trichloroethanol",29402,DTXSID1021950,OCC(Cl)(Cl)Cl,"InChI=1S/C2H3Cl3O/c3-2(4,5)1-6/h6H,1H2",KPWDGTGXUYRARH-UHFFFAOYSA-N,?,,19.0,102150
102154,115-27-5,115-27-5,O=C1OC(=O)C2C1C1(Cl)C(Cl)=C(Cl)C2(Cl)C1(Cl)Cl,Chlorendic Anhydride,Chlorendic anhydride,"4,5,6,7,8,8-hexachloro-3a,4,7,7a-tetrahydro-4,7-methano-2-benzofuran-1,3-dione",29406,DTXSID2026941,O=C1OC(=O)C2C1C1(Cl)C(Cl)=C(Cl)C2(Cl)C1(Cl)Cl,"InChI=1S/C9H2Cl6O3/c10-3-4(11)8(13)2-1(5(16)18-6(2)17)7(3,12)9(8,14)15/h1-2H",FLBJFXNAEMSXGL-UHFFFAOYSA-N,?,,233.0,102154
102158,115-33-3,115-33-3,CC(=O)Oc1ccc(cc1)C1(c2ccccc2NC1=O)c1ccc(cc1)OC(C)=O,Oxyphenisatin Acetate,Oxyphenisatin acetate,"(2-oxo-2,3-dihydro-1H-indole-3,3-diyl)dibenzene-4,1-diyl diacetate",29410,DTXSID9023411,CC(=O)Oc1ccc(cc1)C1(c2ccccc2NC1=O)c1ccc(cc1)OC(C)=O,"InChI=1S/C24H19NO5/c1-15(26)29-19-11-7-17(8-12-19)24(18-9-13-20(14-10-18)30-16(2)27)21-5-3-4-6-22(21)25-23(24)28/h3-14H,1-2H3,(H,25,28)",PHPUXYRXPHEJDF-UHFFFAOYSA-N,?,,242.0,102158
102162,115-43-5,115-43-5,C=CCC1(c2ccccc2)C(=O)NC(=O)NC1=O,PHENALLYMAL,Phenallymal,"5-phenyl-5-prop-2-enyl-1,3-diazinane-2,4,6-trione",29414,DTXSID60150919,C=CCC1(c2ccccc2)C(=O)NC(=O)NC1=O,"InChI=1S/C13H12N2O3/c1-2-8-13(9-6-4-3-5-7-9)10(16)14-12(18)15-11(13)17/h2-7H,1,8H2,(H2,14,15,16,17,18)",WOIGZSBYKGQJGL-UHFFFAOYSA-N,?,,156.5,102162
102166,115-56-0,115-56-0,CC(=C)CC1(CC)C(=O)NC(=S)NC1=O,"BARBITURIC,2-THIO-5-ET-5-MEALLYL",Methallatal,"5-ethyl-5-(2-methylprop-2-enyl)-2-sulfanylidene-1,3-diazinane-4,6-dione",29418,DTXSID70150920,CC(=C)CC1(CC)C(=O)NC(=S)NC1=O,"InChI=1S/C10H14N2O2S/c1-4-10(5-6(2)3)7(13)11-9(15)12-8(10)14/h2,4-5H2,1,3H3,(H2,11,12,13,14,15)",XMQICEWOKPEQRG-UHFFFAOYSA-N,?,,160.5,102166
102170,115-70-8,115-70-8,CCC(N)(CO)CO,"1,3-Propanediol, 2-amino-2-ethyl-","2-Amino-2-ethyl-1,3-propanediol","2-amino-2-ethylpropane-1,3-diol",29422,DTXSID3029150,CCC(N)(CO)CO,"InChI=1S/C5H13NO2/c1-2-5(6,3-7)4-8/h7-8H,2-4,6H2,1H3",IOAOAKDONABGPZ-UHFFFAOYSA-N,?,,37.5,102170
102174,115-79-7,115-79-7,[Cl-].[Cl-].CC[N+](Cc1ccccc1Cl)(CCNC(=O)C(=O)NCC[N+](Cc1ccccc1Cl)(CC)CC)CC,Ambenonium Chloride,Ambenonium chloride,"2,2'-[(1,2-dioxoethane-1,2-diyl)diimino]bis[N-(2-chlorobenzyl)-N,N-diethylethanaminium] dichloride",29426,DTXSID3022582,CC[N+](Cc1ccccc1Cl)(CCNC(=O)C(=O)NCC[N+](Cc1ccccc1Cl)(CC)CC)CC,"InChI=1S/C28H40Cl2N4O2/c1-5-33(6-2,21-23-13-9-11-15-25(23)29)19-17-31-27(35)28(36)32-18-20-34(7-3,8-4)22-24-14-10-12-16-26(24)30/h9-16H,5-8,17-22H2,1-4H3/p+2",OMHBPUNFVFNHJK-UHFFFAOYSA-P,[Cl-].[Cl-],183.0,197.5,102174
102178,115-96-8,115-96-8,O=P(OCCCl)(OCCCl)OCCCl,TRI-2-CHLOROETHYL PHOSPHATE,Tris(2-chloroethyl) phosphate,tris(2-chloroethyl) phosphate,29429,DTXSID5021411,O=P(OCCCl)(OCCCl)OCCCl,"InChI=1S/C6H12Cl3O4P/c7-1-4-11-14(10,12-5-2-8)13-6-3-9/h1-6H2",HQUQLFOMPYWACS-UHFFFAOYSA-N,?,,-35.0,102178
102182,116-15-4,116-15-4,FC(F)=C(F)C(F)(F)F,HEXAFLUOROPROPENE,"1,1,2,3,3,3-Hexafluoro-1-propene","1,1,2,3,3,3-hexafluoroprop-1-ene",29433,DTXSID2026949,FC(F)=C(F)C(F)(F)F,"InChI=1S/C3F6/c4-1(2(5)6)3(7,8)9",HCDGVLDPFQMKDK-UHFFFAOYSA-N,?,,-156.5,102182
102186,116-30-3,2231-40-5,CC1(C)CC(=O)C=C(C)C1=CC=C(C)C=CC=C(C)C=CC=CC(C)=CC=CC(C)=CC=C1C(C)=CC(=O)CC1(C)C,Rhodoxanthin,2231-40-5,C40H50O2,29437,DTXSID10275904,CC1(C)CC(=O)C=C(C)C1=CC=C(C)C=CC=C(C)C=CC=CC(C)=CC=CC(C)=CC=C1C(C)=CC(=O)CC1(C)C,"InChI=1S/C40H50O2/c1-29(17-13-19-31(3)21-23-37-33(5)25-35(41)27-39(37,7)8)15-11-12-16-30(2)18-14-20-32(4)22-24-38-34(6)26-36(42)28-40(38,9)10/h11-26H,27-28H2,1-10H3/b15-11+,16-12+,19-13+,20-14+,29-17+,30-18+,31-21+,32-22+,37-23-,38-24-",VWXMLZQUDPCJPL-ZDHAIZATSA-N,?,,219.0,102186
102190,116-44-9,116-44-9,Nc1ccc(cc1)S(=O)(=O)Nc1c[n]cc[n]1,Sulfapyrazine,Sulfapyrazine,4-amino-N-pyrazin-2-ylbenzenesulfonamide,29441,DTXSID30151256,Nc1ccc(cc1)S(=O)(=O)Nc1c[n]cc[n]1,"InChI=1S/C10H10N4O2S/c11-8-1-3-9(4-2-8)17(15,16)14-10-7-12-5-6-13-10/h1-7H,11H2,(H,13,14)",YEAICDDXRUOCKJ-UHFFFAOYSA-N,?,,251.0,102190
102194,116-71-2,116-71-2,O=C1c2ccccc2-c2ccc3c4c2c1ccc4c1ccc2c4c1c3ccc4-c1ccccc1C2=O,Violanthrone,Vat Blue 20,"anthra[9,1,2-cde]benzo[rst]pentaphene-5,10-dione",29445,DTXSID7026281,O=C1c2ccccc2-c2ccc3c4c2c1ccc4c1ccc2c4c1c3ccc4-c1ccccc1C2=O,InChI=1S/C34H16O2/c35-33-25-7-3-1-5-17(25)19-9-11-21-22-12-10-20-18-6-2-4-8-26(18)34(36)28-16-14-24(30(22)32(20)28)23-13-15-27(33)31(19)29(21)23/h1-16H,YKSGNOMLAIJTLT-UHFFFAOYSA-N,?,,492.5,102194
102198,117-10-2,117-10-2,Oc1cccc2c1C(=O)c1c(cccc1O)C2=O,"9,10-Anthracenedione, 1,8-dihydroxy-",Danthron,"1,8-dihydroxyanthracene-9,10-dione",29449,DTXSID9020328,Oc1cccc2c1C(=O)c1c(cccc1O)C2=O,"InChI=1S/C14H8O4/c15-9-5-1-3-7-11(9)14(18)12-8(13(7)17)4-2-6-10(12)16/h1-6,15-16H",QBPFLULOKWLNNW-UHFFFAOYSA-N,?,,193.0,102198
102203,117-37-3,117-37-3,COc1ccc(cc1)C1C(=O)c2ccccc2C1=O,"1H-INDENE-1,3(2H)-DIONE, 2-(4-METHOXYPHENYL)-",Anisindione,"2-(4-methoxyphenyl)-1H-indene-1,3(2H)-dione",29453,DTXSID3022611,COc1ccc(cc1)C1C(=O)c2ccccc2C1=O,"InChI=1S/C16H12O3/c1-19-11-8-6-10(7-9-11)14-15(17)12-4-2-3-5-13(12)16(14)18/h2-9,14H,1H3",XRCFXMGQEVUZFC-UHFFFAOYSA-N,?,,156.5,102203
102207,117-79-3,117-79-3,Nc1cc2c(cc1)C(=O)c1ccccc1C2=O,2-AMINOANTHRAQUINONE,2-Aminoanthraquinone,"2-aminoanthracene-9,10-dione",29457,DTXSID6020068,Nc1cc2c(cc1)C(=O)c1ccccc1C2=O,"InChI=1S/C14H9NO2/c15-8-5-6-11-12(7-8)14(17)10-4-2-1-3-9(10)13(11)16/h1-7H,15H2",XOGPDSATLSAZEK-UHFFFAOYSA-N,?,,304.5,102207
102215,118-10-5|485-71-2,118-10-5,C=C[C@H]1CN2CCC1C[C@@H]2[C@@H](O)c1cc[n]c2ccccc21,"CINCHONINE, CINCHONIDINE",Cinchonine,(9S)-cinchonan-9-ol,29464|30572,DTXSID6045082,C=CC1CN2CCC1CC2C(O)c1cc[n]c2ccccc21,"InChI=1S/C19H22N2O/c1-2-13-12-21-10-8-14(13)11-18(21)19(22)16-7-9-20-17-6-4-3-5-15(16)17/h2-7,9,13-14,18-19,22H,1,8,10-12H2",KMPWYEUPVWOPIM-UHFFFAOYSA-N,?,,237.75,102215
102219,118-52-5,118-52-5,CC1(C)C(=O)N(Cl)C(=O)N1Cl,"1,3-DICHLORO-5,5-DIMETHYLHYDANTOIN","1,3-Dichloro-5,5-dimethylhydantoin","1,3-dichloro-5,5-dimethylimidazolidine-2,4-dione",29468,DTXSID4024985,CC1(C)C(=O)N(Cl)C(=O)N1Cl,InChI=1S/C5H6Cl2N2O2/c1-5(2)3(10)8(6)4(11)9(5)7/h1-2H3,KEQGZUUPPQEDPF-UHFFFAOYSA-N,?,,132.0,102219
102225,118-69-4,118-69-4,Cc1c(Cl)cccc1Cl,"2,6-DICHLOROTOLUENE","2,6-Dichlorotoluene","1,3-dichloro-2-methylbenzene",29471,DTXSID3040697,Cc1c(Cl)cccc1Cl,"InChI=1S/C7H6Cl2/c1-5-6(8)3-2-4-7(5)9/h2-4H,1H3",DMEDNTFWIHCBRK-UHFFFAOYSA-N,?,,25.8,102225
102229,118-79-6,118-79-6,Oc1c(Br)cc(Br)cc1Br,"2,4,6-TRIBROMOPHENOL","2,4,6-Tribromophenol","2,4,6-tribromophenol",29475,DTXSID6021959,Oc1c(Br)cc(Br)cc1Br,"InChI=1S/C6H3Br3O/c7-3-1-4(8)6(10)5(9)2-3/h1-2,10H",BSWWXRFVMJHFBN-UHFFFAOYSA-N,?,,95.5,102229
102233,118-93-4,118-93-4,CC(=O)c1ccccc1O,O-HYDROXYACETOPHENONE,2-Hydroxyacetophenone,1-(2-hydroxyphenyl)ethanone,29479,DTXSID7040285,CC(=O)c1ccccc1O,"InChI=1S/C8H8O2/c1-6(9)7-4-2-3-5-8(7)10/h2-5,10H,1H3",JECYUBVRTQDVAT-UHFFFAOYSA-N,?,,5.0,102233
102237,119-26-6,119-26-6,NNc1ccc(cc1[N+]([O-])=O)[N+]([O-])=O,"HYDRAZINE, (2,4-DINITROPHENYL)-","2,4-Dinitrophenylhydrazine","(2,4-Dinitrophenyl)hydrazine",29483,DTXSID2059485,NNc1ccc(cc1[N+]([O-])=O)[N+]([O-])=O,"InChI=1S/C6H6N4O4/c7-8-5-2-1-4(9(11)12)3-6(5)10(13)14/h1-3,8H,7H2",HORQAOAYAYGIBM-UHFFFAOYSA-N,?,,194.0,102237
102242,119-34-6,119-34-6,Nc1cc(c(O)cc1)[N+]([O-])=O,"PHENOL, 4-AMINO-2-NITRO-",4-Amino-2-nitrophenol,4-amino-2-nitrophenol,29487,DTXSID6020064,Nc1cc(c(O)cc1)[N+]([O-])=O,"InChI=1S/C6H6N2O3/c7-4-1-2-6(9)5(3-4)8(10)11/h1-3,9H,7H2",WHODQVWERNSQEO-UHFFFAOYSA-N,?,,126.0,102242
102246,119-47-1,119-47-1,CC(C)(C)c1cc(C)cc(Cc2cc(C)cc(c2O)C(C)(C)C)c1O,BIS (2-HYDROXY-3TERT-BUTYL-5-METHYLPHENYL) METHA,"2,2'-Methylenebis(4-methyl-6-tert-butylphenol)","2,2'-methanediylbis(6-tert-butyl-4-methylphenol)",29491,DTXSID4020870,CC(C)(C)c1cc(C)cc(Cc2cc(C)cc(c2O)C(C)(C)C)c1O,"InChI=1S/C23H32O2/c1-14-9-16(20(24)18(11-14)22(3,4)5)13-17-10-15(2)12-19(21(17)25)23(6,7)8/h9-12,24-25H,13H2,1-8H3",KGRVJHAUYBGFFP-UHFFFAOYSA-N,?,,123.0,102246
102250,119-56-2,NOCAS_870472,OC(c1ccccc1)c1ccc(Cl)cc1,"BENZENEMETHANOL, 4-CHLORO-.ALPHA.-PHENYL-",,,29495,DTXSID50870472,OC(c1ccccc1)c1ccc(Cl)cc1,"InChI=1S/C13H11ClO/c14-12-8-6-11(7-9-12)13(15)10-4-2-1-3-5-10/h1-9,13,15H",AJYOOHCNOXWTKJ-UHFFFAOYSA-N,?,,60.75,102250
102254,119-64-2,119-64-2,C1CCCc2ccccc21,TETRALIN,Tetralin,"1,2,3,4-tetrahydronaphthalene",29499,DTXSID1026118,C1CCCc2ccccc21,"InChI=1S/C10H12/c1-2-6-10-8-4-3-7-9(10)5-1/h1-2,5-6H,3-4,7-8H2",CXWXQJXEFPUFDZ-UHFFFAOYSA-N,?,,-35.7,102254
102258,119-75-5,119-75-5,[O-][N+](=O)c1ccccc1Nc1ccccc1,2-NITRO-N-PHENYLBENZENAMINE,2-Nitrodiphenylamine,2-nitro-N-phenylaniline,29503,DTXSID4025749,[O-][N+](=O)c1ccccc1Nc1ccccc1,"InChI=1S/C12H10N2O2/c15-14(16)12-9-5-4-8-11(12)13-10-6-2-1-3-7-10/h1-9,13H",RUKISNQKOIKZGT-UHFFFAOYSA-N,?,,75.0,102258
102262,119-91-5,119-91-5,c1cc([n]c2ccccc21)-c1ccc2ccccc2[n]1,"2,2'-BIQUINOLINE","2,2'-Biquinoline",2-quinolin-2-ylquinoline,29507,DTXSID8059500,c1cc([n]c2ccccc21)-c1ccc2ccccc2[n]1,InChI=1S/C18H12N2/c1-3-7-15-13(5-1)9-11-17(19-15)18-12-10-14-6-2-4-8-16(14)20-18/h1-12H,WPTCSQBWLUUYDV-UHFFFAOYSA-N,?,,194.5,102262
102267,120-08-1,120-08-1,COc1cc2OC(=O)C=Cc2cc1OC,Scoparone,Scoparone,"6,7-dimethoxychromen-2-one",29511,DTXSID10152640,COc1cc2OC(=O)C=Cc2cc1OC,"InChI=1S/C11H10O4/c1-13-9-5-7-3-4-11(12)15-8(7)6-10(9)14-2/h3-6H,1-2H3",GUAFOGOEJLSQBT-UHFFFAOYSA-N,?,,145.5,102267
102271,120-18-3,120-18-3,OS(=O)(=O)c1cc2ccccc2cc1,NAPHTHALENE-2-SULFONIC ACID,Naphthalene-2-sulfonic acid,naphthalene-2-sulfonic acid,29515,DTXSID5044788,OS(=O)(=O)c1cc2ccccc2cc1,"InChI=1S/C10H8O3S/c11-14(12,13)10-6-5-8-3-1-2-4-9(8)7-10/h1-7H,(H,11,12,13)",KVBGVZZKJNLNJU-UHFFFAOYSA-N,?,,91.0,102271
102275,120-25-2,120-25-2,COc1cc(C=O)ccc1OCC,"Benzaldehyde, 4-ethoxy-3-methoxy-","Benzaldehyde, 4-ethoxy-3-methoxy-",4-Ethoxy-3-methoxybenzaldehyde,29519,DTXSID3059509,COc1cc(C=O)ccc1OCC,"InChI=1S/C10H12O3/c1-3-13-9-5-4-8(7-11)6-10(9)12-2/h4-7H,3H2,1-2H3",BERFDQAMXIBOHM-UHFFFAOYSA-N,?,,64.5,102275
102279,120-36-5|15165-67-0,120-36-5|15165-67-0,CC(Oc1ccc(Cl)cc1Cl)C(O)=O,"DICHLORPROP, Propanoic acid, 2-(2,4-dichlorophenoxy)-, (R)-",Dichlorprop,"2-(2,4-dichlorophenoxy)propanoic acid",29523|34933,DTXSID0020440|DTXSID0034851,CC(Oc1ccc(Cl)cc1Cl)C(O)=O,"InChI=1S/C9H8Cl2O3/c1-5(9(12)13)14-8-3-2-6(10)4-7(8)11/h2-5H,1H3,(H,12,13)",MZHCENGPTKEIGP-UHFFFAOYSA-N,?,,122.0,102279
102284,120-51-4,120-51-4,O=C(OCc1ccccc1)c1ccccc1,BENZYL BENZOATE,Benzyl benzoate,benzyl benzoate,29527,DTXSID8029153,O=C(OCc1ccccc1)c1ccccc1,"InChI=1S/C14H12O2/c15-14(13-9-5-2-6-10-13)16-11-12-7-3-1-4-8-12/h1-10H,11H2",SESFRYSPDFLNCH-UHFFFAOYSA-N,?,,21.0,102284
102288,120-58-1,120-58-1,CC=Cc1cc2OCOc2cc1,ISOSAFROLE,Isosafrole,"5-(prop-1-en-1-yl)-1,3-benzodioxole",29531,DTXSID2020767,CC=Cc1cc2OCOc2cc1,"InChI=1S/C10H10O2/c1-2-3-8-4-5-9-10(6-8)12-7-11-9/h2-6H,7H2,1H3/b3-2+",VHVOLFRBFDOUSH-NSCUHMNNSA-N,?,,8.2,102288
102292,120-72-9,120-72-9,c1cccc2[nH]ccc21,INDOLE,Indole,1H-indole,29535,DTXSID0020737,c1cccc2[nH]ccc21,"InChI=1S/C8H7N/c1-2-4-8-7(3-1)5-6-9-8/h1-6,9H",SIKJAQJRHWYJAI-UHFFFAOYSA-N,?,,52.5,102292
102296,120-80-9,120-80-9,Oc1ccccc1O,CATECHOL,Catechol,"benzene-1,2-diol",29539,DTXSID3020257,Oc1ccccc1O,"InChI=1S/C6H6O2/c7-5-3-1-2-4-6(5)8/h1-4,7-8H",YCIMNLLNPGFGHC-UHFFFAOYSA-N,?,,105.0,102296
102300,120-87-6,3639-32-5,CCCCCCCC[C@H](O)[C@H](O)CCCCCCCC(O)=O,"9,10-Dihydroxystearic acid","9,10-Dihydroxystearic acid, erythro-",?,29543,DTXSID50189915,CCCCCCCCC(O)C(O)CCCCCCCC(O)=O,"InChI=1S/C18H36O4/c1-2-3-4-5-7-10-13-16(19)17(20)14-11-8-6-9-12-15-18(21)22/h16-17,19-20H,2-15H2,1H3,(H,21,22)",VACHUYIREGFMSP-UHFFFAOYSA-N,?,,90.0,102300
102304,120-97-8,120-97-8,NS(=O)(=O)c1cc(Cl)c(Cl)c(c1)S(N)(=O)=O,Dichlorophenamide,Dichlorphenamide,"4,5-dichlorobenzene-1,3-disulfonamide",29547,DTXSID1022922,NS(=O)(=O)c1cc(Cl)c(Cl)c(c1)S(N)(=O)=O,"InChI=1S/C6H6Cl2N2O4S2/c7-4-1-3(15(9,11)12)2-5(6(4)8)16(10,13)14/h1-2H,(H2,9,11,12)(H2,10,13,14)",GJQPMPFPNINLKP-UHFFFAOYSA-N,?,,228.7,102304
102309,121-32-4,121-32-4,CCOc1cc(C=O)ccc1O,"BENZALDEHYDE, 3-ETHOXY-4-HYDROXY-",3-Ethoxy-4-hydroxybenzaldehyde,3-ethoxy-4-hydroxybenzaldehyde,29551,DTXSID5021968,CCOc1cc(C=O)ccc1O,"InChI=1S/C9H10O3/c1-2-12-9-5-7(6-10)3-4-8(9)11/h3-6,11H,2H2,1H3",CBOQJANXLMLOSS-UHFFFAOYSA-N,?,,77.5,102309
102313,121-43-7|63156-11-6,121-43-7,COB(OC)OC,"METHYL BORATE, TRIMETHYL BORATE",Trimethyl borate,trimethyl borate,29555|35820,DTXSID0037738,COB(OC)OC,InChI=1S/C3H9BO3/c1-5-4(6-2)7-3/h1-3H3,WRECIMRULFAWHA-UHFFFAOYSA-N,?,,-31.65,102313
102321,121-69-7,121-69-7,CN(C)c1ccccc1,"N,N-DIMETHYLANILINE","N,N-Dimethylaniline","N,N-dimethylaniline",29562,DTXSID2020507,CN(C)c1ccccc1,"InChI=1S/C8H11N/c1-9(2)8-6-4-3-5-7-8/h3-7H,1-2H3",JLTDJTHDQAWBAV-UHFFFAOYSA-N,?,,2.5,102321
102325,121-79-9,121-79-9,CCCOC(=O)c1cc(O)c(O)c(O)c1,PROPYL GALLATE,Propyl gallate,"propyl 3,4,5-trihydroxybenzoate",29566,DTXSID5021201,CCCOC(=O)c1cc(O)c(O)c(O)c1,"InChI=1S/C10H12O5/c1-2-3-15-10(14)6-4-7(11)9(13)8(12)5-6/h4-5,11-13H,2-3H2,1H3",ZTHYODDOHIVTJV-UHFFFAOYSA-N,?,,130.0,102325
102329,121-87-9,121-87-9,Nc1ccc(cc1Cl)[N+]([O-])=O,2-CHLORO-4-NITROANILINE,2-Chloro-4-nitroaniline,2-chloro-4-nitroaniline,29570,DTXSID4021973,Nc1ccc(cc1Cl)[N+]([O-])=O,"InChI=1S/C6H5ClN2O2/c7-5-3-4(9(10)11)1-2-6(5)8/h1-3H,8H2",LOCWBQIWHWIRGN-UHFFFAOYSA-N,?,,108.0,102329
102333,121-91-5,121-91-5,OC(=O)c1cc(ccc1)C(O)=O,ISOPHTHALIC ACID,"1,3-Benzenedicarboxylic acid","benzene-1,3-dicarboxylic acid",29574,DTXSID3021485,OC(=O)c1cc(ccc1)C(O)=O,"InChI=1S/C8H6O4/c9-7(10)5-2-1-3-6(4-5)8(11)12/h1-4H,(H,9,10)(H,11,12)",QQVIHTHCMHWDBS-UHFFFAOYSA-N,?,,347.0,102333
102337,122-01-0,122-01-0,O=C(Cl)c1ccc(Cl)cc1,"Benzoyl chloride, 4-chloro-",4-Chlorobenzoyl chloride,4-chlorobenzoyl chloride,29578,DTXSID4051619,O=C(Cl)c1ccc(Cl)cc1,InChI=1S/C7H4Cl2O/c8-6-3-1-5(2-4-6)7(9)10/h1-4H,RKIDDEGICSMIJA-UHFFFAOYSA-N,?,,16.0,102337
102341,122-15-6,122-15-6,CN(C)C(=O)OC1CC(C)(C)CC(=O)C=1,DIMETAN,Dimetan,"5,5-dimethyl-3-oxocyclohex-1-en-1-yl dimethylcarbamate",29582,DTXSID8041872,CN(C)C(=O)OC1CC(C)(C)CC(=O)C=1,"InChI=1S/C11H17NO3/c1-11(2)6-8(13)5-9(7-11)15-10(14)12(3)4/h5H,6-7H2,1-4H3",ITEQSCBLCCNACE-UHFFFAOYSA-N,?,,45.5,102341
102345,122-28-1,122-28-1,CC(=O)Nc1cc(ccc1)[N+]([O-])=O,M-NITROACETANILIDE,"Acetamide, N-(3-nitrophenyl)-",N-(3-Nitrophenyl)acetamide,29586,DTXSID5059539,CC(=O)Nc1cc(ccc1)[N+]([O-])=O,"InChI=1S/C8H8N2O3/c1-6(11)9-7-3-2-4-8(5-7)10(12)13/h2-5H,1H3,(H,9,11)",KFTYNYHJHKCRKU-UHFFFAOYSA-N,?,,155.0,102345
102349,122-40-7,NOCAS_859230,CCCCCC(C=O)=Cc1ccccc1,"Heptanal, 2-(phenylmethylene)-",Pentylcinnamaldehyde,,29590,DTXSID80859230,CCCCCC(C=O)=Cc1ccccc1,"InChI=1S/C14H18O/c1-2-3-5-10-14(12-15)11-13-8-6-4-7-9-13/h4,6-9,11-12H,2-3,5,10H2,1H3/b14-11-",HMKKIXGYKWDQSV-KAMYIIQDSA-N,?,,80.0,102349
102353,122-57-6|1896-62-4,122-57-6|1896-62-4,CC(=O)C=Cc1ccccc1,"METHYL STYRYL KETONE, 4-Phenyl-but-3-en-2-one",Methyl styryl ketone,4-phenylbut-3-en-2-one,29594|33310,DTXSID4025662|DTXSID1031626,CC(=O)C=Cc1ccccc1,"InChI=1S/C10H10O/c1-9(11)7-8-10-5-3-2-4-6-10/h2-8H,1H3/b8-7+",BWHOZHOGCMHOBV-BQYQJAHWSA-N,?,,41.75,102353
102357,122-66-7,122-66-7,c1ccccc1NNc1ccccc1,HYDRAZOBENZENE,"1,2-Diphenylhydrazine","1,2-diphenylhydrazine",29598,DTXSID7020710,c1ccccc1NNc1ccccc1,"InChI=1S/C12H12N2/c1-3-7-11(8-4-1)13-14-12-9-5-2-6-10-12/h1-10,13-14H",YBQZXXMEJHZYMB-UHFFFAOYSA-N,?,,131.0,102357
102361,122-80-5,122-80-5,CC(=O)Nc1ccc(N)cc1,P-AMINOACETANILIDE,4-Aminoacetanilide,N-(4-aminophenyl)acetamide,29602,DTXSID7024455,CC(=O)Nc1ccc(N)cc1,"InChI=1S/C8H10N2O/c1-6(11)10-8-4-2-7(9)3-5-8/h2-5H,9H2,1H3,(H,10,11)",CHMBIJAOCISYEW-UHFFFAOYSA-N,?,,166.5,102361
102365,122-95-2,122-95-2,CCOc1ccc(cc1)OCC,"Benzene, 1,4-diethoxy-","Benzene, 1,4-diethoxy-","1,4-Diethoxybenzene",29606,DTXSID9059549,CCOc1ccc(cc1)OCC,"InChI=1S/C10H14O2/c1-3-11-9-5-7-10(8-6-9)12-4-2/h5-8H,3-4H2,1-2H3",VWGNFIQXBYRDCH-UHFFFAOYSA-N,?,,72.0,102365
102369,123-00-2,123-00-2,NCCCN1CCOCC1,4-Morpholinepropanamine,4-Morpholinepropanamine,3-(morpholin-4-yl)propan-1-amine,29610,DTXSID4041521,NCCCN1CCOCC1,InChI=1S/C7H16N2O/c8-2-1-3-9-4-6-10-7-5-9/h1-8H2,UIKUBYKUYUSRSM-UHFFFAOYSA-N,?,,-15.0,102369
102374,123-07-9,123-07-9,CCc1ccc(O)cc1,P-ETHYLPHENOL,4-Ethylphenol,4-ethylphenol,29614,DTXSID4021977,CCc1ccc(O)cc1,"InChI=1S/C8H10O/c1-2-7-3-5-8(9)6-4-7/h3-6,9H,2H2,1H3",HXDOZKJGKXYMEW-UHFFFAOYSA-N,?,,45.0,102374
102378,123-20-6,123-20-6,CCCC(=O)OC=C,Vinyl butyrate,"Butanoic acid, ethenyl ester",ethenyl butanoate,29618,DTXSID0074556,CCCC(=O)OC=C,"InChI=1S/C6H10O2/c1-3-5-6(7)8-4-2/h4H,2-3,5H2,1H3",MEGHWIAOTJPCHQ-UHFFFAOYSA-N,?,,116.7,102378
102382,123-29-5,123-29-5,CCCCCCCCC(=O)OCC,ETHYL NONANOATE,Ethyl nonanoate,ethyl nonanoate,29622,DTXSID1047651,CCCCCCCCC(=O)OCC,"InChI=1S/C11H22O2/c1-3-5-6-7-8-9-10-11(12)13-4-2/h3-10H2,1-2H3",BYEVBITUADOIGY-UHFFFAOYSA-N,?,,-36.7,102382
102386,123-33-1,123-33-1,O=C1C=CC(=O)NN1,MALEIC HYDRAZIDE,Maleic hydrazide,"1,2-dihydropyridazine-3,6-dione",29626,DTXSID9020792,O=C1C=CC(=O)NN1,"InChI=1S/C4H4N2O2/c7-3-1-2-4(8)6-5-3/h1-2H,(H,5,7)(H,6,8)",BGRDGMRNKXEXQD-UHFFFAOYSA-N,?,,306.0,102386
102391,123-45-5,123-45-5,OC(=O)CS(=O)(=O)CC(O)=O,Sulfonyldiacetic Acid,Sulfonyldiacetic acid,C4H6O6S,29630,DTXSID10294054,OC(=O)CS(=O)(=O)CC(O)=O,"InChI=1S/C4H6O6S/c5-3(6)1-11(9,10)2-4(7)8/h1-2H2,(H,5,6)(H,7,8)",WDYRPTWUNMHTJL-UHFFFAOYSA-N,?,,182.0,102391
102395,123-61-5,123-61-5,O=C=Nc1cc(ccc1)N=C=O,"Benzene, 1,3-diisocyanato-","1,3-Diisocyanatobenzene","1,3-diisocyanatobenzene",29634,DTXSID9044792,O=C=Nc1cc(ccc1)N=C=O,InChI=1S/C8H4N2O2/c11-5-9-7-2-1-3-8(4-7)10-6-12/h1-4H,VGHSXKTVMPXHNG-UHFFFAOYSA-N,?,,50.0,102395
102399,123-72-8,123-72-8,CCCC=O,BUTYRALDEHYDE,Butyraldehyde,butanal,29638,DTXSID8021513,CCCC=O,"InChI=1S/C4H8O/c1-2-3-4-5/h4H,2-3H2,1H3",ZTQSAGDEMFDKMZ-UHFFFAOYSA-N,?,,-99.0,102399
102403,123-78-4,NOCAS_861763,CCCCCCCCCCCCC/C=C/[C@@H](O)[C@@H](N)CO,Sphingosine,,,29642,DTXSID90861763,CCCCCCCCCCCCCC=CC(O)C(N)CO,"InChI=1S/C18H37NO2/c1-2-3-4-5-6-7-8-9-10-11-12-13-14-15-18(21)17(19)16-20/h14-15,17-18,20-21H,2-13,16,19H2,1H3/b15-14+",WWUZIQQURGPMPG-CCEZHUSRSA-N,?,,67.0,102403
102408,123-91-1,123-91-1,C1COCCO1,"1,4-DIOXANE","1,4-Dioxane","1,4-dioxane",29646,DTXSID4020533,C1COCCO1,InChI=1S/C4H8O2/c1-2-6-4-3-5-1/h1-4H2,RYHBNJHYFVUHQT-UHFFFAOYSA-N,?,,11.8,102408
102412,123-96-6|4128-31-8,123-96-6,CCCCCCC(C)O,"2-OCTANOL, dl-2-Octanol",2-Octanol,octan-2-ol,29650|34165,DTXSID0027014,CCCCCCC(C)O,"InChI=1S/C8H18O/c1-3-4-5-6-7-8(2)9/h8-9H,3-7H2,1-2H3",SJWFXCIHNDVPSH-UHFFFAOYSA-N,?,,3.5,102412
102416,124-04-9,124-04-9,OC(=O)CCCCC(O)=O,HEXANEDIOIC ACID,Hexanedioic acid,hexanedioic acid,29654,DTXSID7021605,OC(=O)CCCCC(O)=O,"InChI=1S/C6H10O4/c7-5(8)3-1-2-4-6(9)10/h1-4H2,(H,7,8)(H,9,10)",WNLRTRBMVRJNCN-UHFFFAOYSA-N,?,,153.2,102416
102420,124-10-7,124-10-7,CCCCCCCCCCCCCC(=O)OC,METHYL MYRISTATE,Methyl tetradecanoate,methyl tetradecanoate,29658,DTXSID5027019,CCCCCCCCCCCCCC(=O)OC,"InChI=1S/C15H30O2/c1-3-4-5-6-7-8-9-10-11-12-13-14-15(16)17-2/h3-14H2,1-2H3",ZAZKJZBWRNNLDS-UHFFFAOYSA-N,?,,19.0,102420