ChemID,source_casrn,CAS,SMILES,NAME,preferred_name,iupac,MPID,dsstox_substance_id,Canonical_QSARr,InChI_Code_QSARr,InChI Key_QSARr,Salt_Solvent,BP,ID
100684,100-84-5,100-84-5,Cc1cccc(c1)OC,M-METHYLANISOLE,3-Methoxytoluene,1-methoxy-3-methylbenzene,19758,DTXSID2051500,Cc1cccc(c1)OC,"InChI=1S/C8H10O/c1-7-4-3-5-8(6-7)9-2/h3-6H,1-2H3",OSIGJGFTADMDOB-UHFFFAOYSA-N,?,175.5,100684
100688,101-17-7,101-17-7,Clc1cc(ccc1)Nc1ccccc1,3-CHLORODIPHENYL ETHER,3-Chlorodiphenylamine,3-chloro-N-phenylaniline,19762,DTXSID70143615,Clc1cc(ccc1)Nc1ccccc1,"InChI=1S/C12H10ClN/c13-10-5-4-8-12(9-10)14-11-6-2-1-3-7-11/h1-9,14H",OHHIBZKYXJDQEU-UHFFFAOYSA-N,?,338.0,100688
100692,101-41-7,101-41-7,COC(=O)Cc1ccccc1,"PHENYLACETIC ACID, METHYL ESTER",Methyl phenylacetate,methyl phenylacetate,19766,DTXSID1044352,COC(=O)Cc1ccccc1,"InChI=1S/C9H10O2/c1-11-9(10)7-8-5-3-2-4-6-8/h2-6H,7H2,1H3",CRZQGDNQQAALAY-UHFFFAOYSA-N,?,216.5,100692
100696,101-54-2,101-54-2,Nc1ccc(cc1)Nc1ccccc1,4-AMINODIPHENYLAMINE,"N-Phenyl-1,4-benzenediamine","N-phenylbenzene-1,4-diamine",19770,DTXSID7025895,Nc1ccc(cc1)Nc1ccccc1,"InChI=1S/C12H12N2/c13-10-6-8-12(9-7-10)14-11-4-2-1-3-5-11/h1-9,14H,13H2",ATGUVEKSASEFFO-UHFFFAOYSA-N,?,354.0,100696
100700,101-80-4,101-80-4,Nc1ccc(cc1)Oc1ccc(N)cc1,"4,4'-DIAMINODIPHENYL ETHER","4,4'-Oxydianiline","4,4'-oxydianiline",19774,DTXSID0021094,Nc1ccc(cc1)Oc1ccc(N)cc1,"InChI=1S/C12H12N2O/c13-9-1-5-11(6-2-9)15-12-7-3-10(14)4-8-12/h1-8H,13-14H2",HLBLWEWZXPIGSM-UHFFFAOYSA-N,?,350.0,100700
100704,101-84-8,101-84-8,c1ccccc1Oc1ccccc1,DIPHENYL ETHER,Diphenyl oxide,diphenyl ether,19778,DTXSID9021847,c1ccccc1Oc1ccccc1,InChI=1S/C12H10O/c1-3-7-11(8-4-1)13-12-9-5-2-6-10-12/h1-10H,USIUVYZYUHIAEV-UHFFFAOYSA-N,?,258.0,100704
100708,102-07-8,102-07-8,O=C(Nc1ccccc1)Nc1ccccc1,"DIPHENYLUREA, SYM",Diphenylurea,"1,3-diphenylurea",19782,DTXSID2025183,O=C(Nc1ccccc1)Nc1ccccc1,"InChI=1S/C13H12N2O/c16-13(14-11-7-3-1-4-8-11)15-12-9-5-2-6-10-12/h1-10H,(H2,14,15,16)",GWEHVDNNLFDJLR-UHFFFAOYSA-N,?,262.0,100708
100712,102-24-9,102-24-9,CO[b]1o[b](o[b](o1)OC)OC,"Boroxin, trimethoxy-",Trimethoxycyclotriboroxane,trimethoxyboroxin,19786,DTXSID6051514,CO[b]1o[b](o[b](o1)OC)OC,InChI=1S/C3H9B3O6/c1-7-4-10-5(8-2)12-6(9-3)11-4/h1-3H3,ZFMOJHVRFMOIGF-UHFFFAOYSA-N,?,130.0,100712
100717,102-47-6,102-47-6,ClCc1cc(Cl)c(Cl)cc1,"Benzene, 1,2-dichloro-4-(chloromethyl)-","Benzene, 1,2-dichloro-4-(chloromethyl)-","1,2-DICHLORO-4-(CHLOROMETHYL)BENZENE",19790,DTXSID9059252,ClCc1cc(Cl)c(Cl)cc1,"InChI=1S/C7H5Cl3/c8-4-5-1-2-6(9)7(10)3-5/h1-3H,4H2",YZIFVWOCPGPNHB-UHFFFAOYSA-N,?,241.0,100717
100722,102-56-7,102-56-7,COc1ccc(cc1N)OC,"2,5-DIMETHOXYANILINE","Benzenamine, 2,5-dimethoxy-","2,5-Dimethoxyaniline",19794,DTXSID4059257,COc1ccc(cc1N)OC,"InChI=1S/C8H11NO2/c1-10-6-3-4-8(11-2)7(9)5-6/h3-5H,9H2,1-2H3",NAZDVUBIEPVUKE-UHFFFAOYSA-N,?,270.0,100722
100726,102-76-1,102-76-1,CC(=O)OC(COC(C)=O)COC(C)=O,TRIACETIN,Triacetin,"propane-1,2,3-triyl triacetate",19798,DTXSID3026691,CC(=O)OC(COC(C)=O)COC(C)=O,"InChI=1S/C9H14O6/c1-6(10)13-4-9(15-8(3)12)5-14-7(2)11/h9H,4-5H2,1-3H3",URAYPUMNDPQOKB-UHFFFAOYSA-N,?,259.0,100726
100730,102-83-0,102-83-0,CCCCN(CCCN)CCCC,"1,3-Propanediamine, N,N-dibutyl-","1,3-Propanediamine, N,N-dibutyl-","N,N-dibutylpropane-1,3-diamine",19802,DTXSID8059261,CCCCN(CCCN)CCCC,"InChI=1S/C11H26N2/c1-3-5-9-13(10-6-4-2)11-7-8-12/h3-12H2,1-2H3",KYCGURZGBKFEQB-UHFFFAOYSA-N,?,205.0,100730
100734,103-09-3,103-09-3,CCCCC(COC(C)=O)CC,2-ETHYLHEXYLACETATE,2-Ethylhexyl acetate,2-ethylhexyl acetate,19806,DTXSID8026694,CCCCC(COC(C)=O)CC,"InChI=1S/C10H20O2/c1-4-6-7-10(5-2)8-12-9(3)11/h10H,4-8H2,1-3H3",WOYWLLHHWAMFCB-UHFFFAOYSA-N,?,199.0,100734
100738,103-26-4,103-26-4,COC(=O)C=Cc1ccccc1,"CINNAMIC ACID, METHYL ESTER",Methyl cinnamate,methyl 3-phenylprop-2-enoate,19810,DTXSID6042151,COC(=O)C=Cc1ccccc1,"InChI=1S/C10H10O2/c1-12-10(11)8-7-9-5-3-2-4-6-9/h2-8H,1H3/b8-7+",CCRCUPLGCSFEDV-BQYQJAHWSA-N,?,260.4,100738
100742,103-33-3|17082-12-1,103-33-3,c1ccccc1N=Nc1ccccc1,"AZOBENZENE, DIAZENE, DIPHENYL-, (E)-",Azobenzene,diphenyldiazene,19814|24275,DTXSID8020123,c1ccccc1N=Nc1ccccc1,InChI=1S/C12H10N2/c1-3-7-11(8-4-1)13-14-12-9-5-2-6-10-12/h1-10H/b14-13+,DMLAVOWQYNRWNQ-BUHFOSPRSA-N,?,293.0,100742
100746,103-41-3,103-41-3,O=C(C=Cc1ccccc1)OCc1ccccc1,BENZYL CINNAMATE,Benzyl cinnamate,benzyl 3-phenylprop-2-enoate,19818,DTXSID3041663,O=C(C=Cc1ccccc1)OCc1ccccc1,"InChI=1S/C16H14O2/c17-16(12-11-14-7-3-1-4-8-14)18-13-15-9-5-2-6-10-15/h1-12H,13H2/b12-11+",NGHOLYJTSCBCGC-VAWYXSNFSA-N,?,350.0,100746
100750,103-54-8,103-54-8,CC(=O)OCC=Cc1ccccc1,"Acetic acid, cinnamyl ester",3-Phenylprop-2-en-1-yl acetate,3-phenylprop-2-en-1-yl acetate,19822,DTXSID2044765,CC(=O)OCC=Cc1ccccc1,"InChI=1S/C11H12O2/c1-10(12)13-9-5-8-11-6-3-2-4-7-11/h2-8H,9H2,1H3/b8-5+",WJSDHUCWMSHDCR-VMPITWQZSA-N,?,265.0,100750
100754,103-69-5,103-69-5,CCNc1ccccc1,N-ETHYLANILINE,N-Ethylaniline,N-ethylaniline,19826,DTXSID1025271,CCNc1ccccc1,"InChI=1S/C8H11N/c1-2-9-8-6-4-3-5-7-8/h3-7,9H,2H2,1H3",OJGMBLNIHDZDGS-UHFFFAOYSA-N,?,203.0,100754
100759,103-76-4,103-76-4,OCCN1CCNCC1,1-Piperazineethanol,1-Piperazineethanol,2-(piperazin-1-yl)ethanol,19830,DTXSID3021853,OCCN1CCNCC1,"InChI=1S/C6H14N2O/c9-6-5-8-3-1-7-2-4-8/h7,9H,1-6H2",WFCSWCVEJLETKA-UHFFFAOYSA-N,?,246.0,100759
100763,103-84-4,103-84-4,CC(=O)Nc1ccccc1,ACETANILIDE,Acetanilide,N-phenylacetamide,19834,DTXSID2022543,CC(=O)Nc1ccccc1,"InChI=1S/C8H9NO/c1-7(10)9-8-5-3-2-4-6-8/h2-6H,1H3,(H,9,10)",FZERHIULMFGESH-UHFFFAOYSA-N,?,304.0,100763
100767,104-13-2,104-13-2,CCCCc1ccc(N)cc1,"BENZENAMINE, 4-BUTYL-",4-Butylaniline,4-butylaniline,19838,DTXSID8021856,CCCCc1ccc(N)cc1,"InChI=1S/C10H15N/c1-2-3-4-9-5-7-10(11)8-6-9/h5-8H,2-4,11H2,1H3",OGIQUQKNJJTLSZ-UHFFFAOYSA-N,?,261.0,100767
100771,104-47-2,104-47-2,COc1ccc(CC#N)cc1,"Benzeneacetonitrile, 4-methoxy-",4-Methoxyphenylacetonitrile,(4-methoxyphenyl)acetonitrile,19842,DTXSID0051526,COc1ccc(CC#N)cc1,"InChI=1S/C9H9NO/c1-11-9-4-2-8(3-5-9)6-7-10/h2-5H,6H2,1H3",PACGLQCRGWFBJH-UHFFFAOYSA-N,?,286.5,100771
100775,104-52-9,104-52-9,ClCCCc1ccccc1,3-PHENYL-1-CHLOROPROPANE,(3-Chloropropyl)benzene,3-chloropropylbenzene,19846,DTXSID10146206,ClCCCc1ccccc1,"InChI=1S/C9H11Cl/c10-8-4-7-9-5-2-1-3-6-9/h1-3,5-6H,4,7-8H2",XZBXAYCCBFTQHH-UHFFFAOYSA-N,?,219.5,100775
100779,104-57-4,104-57-4,O=COCc1ccccc1,"Formic acid, phenylmethyl ester","Formic acid, phenylmethyl ester",Phenylmethyl formate,19850,DTXSID5059298,O=COCc1ccccc1,"InChI=1S/C8H8O2/c9-7-10-6-8-4-2-1-3-5-8/h1-5,7H,6H2",UYWQUFXKFGHYNT-UHFFFAOYSA-N,?,203.0,100779
100783,104-72-3,104-72-3,CCCCCCCCCCc1ccccc1,1-PHENYLDECANE,Decylbenzene,decylbenzene,19854,DTXSID5051529,CCCCCCCCCCc1ccccc1,"InChI=1S/C16H26/c1-2-3-4-5-6-7-8-10-13-16-14-11-9-12-15-16/h9,11-12,14-15H,2-8,10,13H2,1H3",UZILCZKGXMQEQR-UHFFFAOYSA-N,?,298.0,100783
100787,104-80-3,NOCAS_870446,OCC1CCC(CO)O1,"2,5-Tetrahydrofurandimethanol",,,19858,DTXSID40870446,OCC1CCC(CO)O1,"InChI=1S/C6H12O3/c7-3-5-1-2-6(4-8)9-5/h5-8H,1-4H2",YCZZQSFWHFBKMU-UHFFFAOYSA-N,?,265.0,100787
100791,104-84-7,104-84-7,Cc1ccc(CN)cc1,"BENZENEMETHANAMINE, 4-METHYL-","Benzenemethanamine, 4-methyl-",(4-methylphenyl)methanamine,19862,DTXSID2059306,Cc1ccc(CN)cc1,"InChI=1S/C8H11N/c1-7-2-4-8(6-9)5-3-7/h2-5H,6,9H2,1H3",HMTSWYPNXFHGEP-UHFFFAOYSA-N,?,195.0,100791
100795,104-90-5,104-90-5,Cc1ccc(CC)c[n]1,5-ETHYL-2-METHYLPYRIDINE,5-Ethyl-2-methylpyridine,5-ethyl-2-methylpyridine,19866,DTXSID7021861,Cc1ccc(CC)c[n]1,"InChI=1S/C8H11N/c1-3-8-5-4-7(2)9-6-8/h4-6H,3H2,1-2H3",NTSLROIKFLNUIJ-UHFFFAOYSA-N,?,178.3,100795
100799,104-96-1,104-96-1,CSc1ccc(N)cc1,"Benzenamine, 4-(methylthio)-","Benzenamine, 4-(methylthio)-",4-methylsulfanylaniline,19870,DTXSID7059309,CSc1ccc(N)cc1,"InChI=1S/C7H9NS/c1-9-7-4-2-6(8)3-5-7/h2-5H,8H2,1H3",YKFROQCFVXOUPW-UHFFFAOYSA-N,?,272.5,100799
100803,105-30-6,105-30-6,CCCC(C)CO,2-METHYL-1-PENTANOL,2-Methyl-1-pentanol,2-methylpentan-1-ol,19874,DTXSID9026714,CCCC(C)CO,"InChI=1S/C6H14O/c1-3-4-6(2)5-7/h6-7H,3-5H2,1-2H3",PFNHSEQQEPMLNI-UHFFFAOYSA-N,?,149.0,100803
100807,105-37-3,105-37-3,CCC(=O)OCC,ETHYL PROPIONATE,Ethyl propionate,ethyl propanoate,19878,DTXSID1040110,CCC(=O)OCC,"InChI=1S/C5H10O2/c1-3-5(6)7-4-2/h3-4H2,1-2H3",FKRCODPIKNYEAC-UHFFFAOYSA-N,?,99.1,100807
100811,105-41-9,NOCAS_861715,CCC(C)CC(C)N,"2-HEXANAMINE, 4-METHYL-",,,19882,DTXSID60861715,CCC(C)CC(C)N,"InChI=1S/C7H17N/c1-4-6(2)5-7(3)8/h6-7H,4-5,8H2,1-3H3",YAHRDLICUYEDAU-UHFFFAOYSA-N,?,132.5,100811
100815,105-48-6,105-48-6,CC(C)OC(=O)CCl,ISOPROPYL CHLOROACETATE,"Acetic acid, chloro-, 1-methylethyl ester",propan-2-yl 2-chloroacetate,19886,DTXSID6059316,CC(C)OC(=O)CCl,"InChI=1S/C5H9ClO2/c1-4(2)8-5(7)3-6/h4H,3H2,1-2H3",VODRWDBLLGYRJT-UHFFFAOYSA-N,?,150.5,100815
100819,105-56-6,105-56-6,CCOC(=O)CC#N,ETHYL CYANOACETATE,Ethyl cyanoacetate,ethyl cyanoacetate,19890,DTXSID9026718,CCOC(=O)CC#N,"InChI=1S/C5H7NO2/c1-2-8-5(7)3-4-6/h2-3H2,1H3",ZIUSEGSNTOUIPT-UHFFFAOYSA-N,?,210.0,100819
100823,105-60-2,105-60-2,O=C1CCCCCN1,CAPROLACTAM,Caprolactam,azepan-2-one,19894,DTXSID4020240,O=C1CCCCCN1,"InChI=1S/C6H11NO/c8-6-4-2-1-3-5-7-6/h1-5H2,(H,7,8)",JBKVHLHDHHXQEQ-UHFFFAOYSA-N,?,270.0,100823
100828,105-76-0,105-76-0,CCCCOC(=O)/C=C\C(=O)OCCCC,DIBUTYL MALEATE,Dibutyl maleate,dibutyl (2Z)-but-2-enedioate,19898,DTXSID3026724,CCCCOC(=O)C=CC(=O)OCCCC,"InChI=1S/C12H20O4/c1-3-5-9-15-11(13)7-8-12(14)16-10-6-4-2/h7-8H,3-6,9-10H2,1-2H3/b8-7+",JBSLOWBPDRZSMB-BQYQJAHWSA-N,?,281.0,100828
100832,106-20-7,106-20-7,CCCCC(CNCC(CCCC)CC)CC,Di-(2-ethylhexyl)amine,"2,2'-Diethylhexylamine",2-ethyl-N-(2-ethylhexyl)hexan-1-amine,19902,DTXSID7025053,CCCCC(CNCC(CCCC)CC)CC,"InChI=1S/C16H35N/c1-5-9-11-15(7-3)13-17-14-16(8-4)12-10-6-2/h15-17H,5-14H2,1-4H3",SAIKULLUBZKPDA-UHFFFAOYSA-N,?,281.1,100832
100837,106-27-4,106-27-4,CCCC(=O)OCCC(C)C,ISOPENTYL BUTANOATE,Isopentyl butyrate,3-methylbutyl butanoate,19907,DTXSID3042059,CCCC(=O)OCCC(C)C,"InChI=1S/C9H18O2/c1-4-5-9(10)11-7-6-8(2)3/h8H,4-7H2,1-3H3",PQLMXFQTAMDXIZ-UHFFFAOYSA-N,?,179.0,100837
100841,106-33-2,106-33-2,CCCCCCCCCCCC(=O)OCC,ETHYL LAURATE,Ethyl dodecanoate,ethyl dodecanoate,19911,DTXSID4047044,CCCCCCCCCCCC(=O)OCC,"InChI=1S/C14H28O2/c1-3-5-6-7-8-9-10-11-12-13-14(15)16-4-2/h3-13H2,1-2H3",MMXKVMNBHPAILY-UHFFFAOYSA-N,?,271.0,100841
100845,106-38-7,106-38-7,Cc1ccc(Br)cc1,P-BROMOTOLUENE,4-Bromotoluene,1-bromo-4-methylbenzene,19915,DTXSID7024661,Cc1ccc(Br)cc1,"InChI=1S/C7H7Br/c1-6-2-4-7(8)5-3-6/h2-5H,1H3",ZBTMRBYMKUEVEU-UHFFFAOYSA-N,?,184.3,100845
100849,106-43-4,106-43-4,Cc1ccc(Cl)cc1,P-CHLOROTOLUENE,4-Chlorotoluene,1-chloro-4-methylbenzene,19919,DTXSID8024814,Cc1ccc(Cl)cc1,"InChI=1S/C7H7Cl/c1-6-2-4-7(8)5-3-6/h2-5H,1H3",NPDACUSDTOMAMK-UHFFFAOYSA-N,?,162.4,100849
100853,106-47-8,106-47-8,Nc1ccc(Cl)cc1,4-CHLOROANILINE,4-Chloroaniline,4-chloroaniline,19923,DTXSID9020295,Nc1ccc(Cl)cc1,"InChI=1S/C6H6ClN/c7-5-1-3-6(8)4-2-5/h1-4H,8H2",QSNSCYSYFYORTR-UHFFFAOYSA-N,?,232.0,100853
100857,106-52-5,106-52-5,CN1CCC(O)CC1,"4-Piperidinol, 1-methyl-","4-Piperidinol, 1-methyl-",1-Methylpiperidin-4-ol,19927,DTXSID9059339,CN1CCC(O)CC1,"InChI=1S/C6H13NO/c1-7-4-2-6(8)3-5-7/h6,8H,2-5H2,1H3",BAUWRHPMUVYFOD-UHFFFAOYSA-N,?,200.0,100857
100861,106-58-1,106-58-1,CN1CCN(C)CC1,"PIPERAZINE, 1,4-DIMETHYL-","1,4-Dimethylpiperazine","1,4-dimethylpiperazine",19931,DTXSID8051544,CN1CCN(C)CC1,"InChI=1S/C6H14N2/c1-7-3-5-8(2)6-4-7/h3-6H2,1-2H3",RXYPXQSKLGGKOL-UHFFFAOYSA-N,?,131.0,100861
100865,106-70-7,106-70-7,CCCCCC(=O)OC,METHYL HEXANOATE,Methyl hexanoate,methyl hexanoate,19935,DTXSID0047616,CCCCCC(=O)OC,"InChI=1S/C7H14O2/c1-3-4-5-6-7(8)9-2/h3-6H2,1-2H3",NUKZAGXMHTUAFE-UHFFFAOYSA-N,?,149.5,100865
100870,106-87-6,106-87-6,C1C2OC2CCC1C1CO1,"7-OXABICYCLO 4.1.0 HEPTANE, 3-OXIRANYL-",4-Vinyl-1-cyclohexene dioxide,3-(oxiran-2-yl)-7-oxabicyclo[4.1.0]heptane,19939,DTXSID0020604,C1C2OC2CCC1C1CO1,"InChI=1S/C8H12O2/c1-2-6-7(10-6)3-5(1)8-4-9-8/h5-8H,1-4H2",OECTYKWYRCHAKR-UHFFFAOYSA-N,?,227.0,100870
100875,106-93-4,106-93-4,BrCCBr,"1,2-DIBROMOETHANE","1,2-Dibromoethane","1,2-dibromoethane",19943,DTXSID3020415,BrCCBr,InChI=1S/C2H4Br2/c3-1-2-4/h1-2H2,PAAZPARNPHGIKF-UHFFFAOYSA-N,?,131.6,100875
100879,106-97-8,106-97-8,CCCC,N-BUTANE,Butane,C4H10,19947,DTXSID7024665,CCCC,"InChI=1S/C4H10/c1-3-4-2/h3-4H2,1-2H3",IJDNQMDRQITEOD-UHFFFAOYSA-N,?,-0.5,100879
100884,107-02-8,107-02-8,C=CC=O,ACROLEIN,Acrolein,prop-2-enal,19951,DTXSID5020023,C=CC=O,"InChI=1S/C3H4O/c1-2-3-4/h2-3H,1H2",HGINCPLSRVDWNT-UHFFFAOYSA-N,?,52.6,100884
100888,107-06-2,107-06-2,ClCCCl,"1,2-DICHLOROETHANE","1,2-Dichloroethane",C2H4Cl2,19955,DTXSID6020438,ClCCCl,InChI=1S/C2H4Cl2/c3-1-2-4/h1-2H2,WSLDOOZREJYCGB-UHFFFAOYSA-N,?,83.5,100888
100892,107-11-9,107-11-9,C=CCN,ALLYLAMINE,Allylamine,C3H7N,19959,DTXSID8024440,C=CCN,"InChI=1S/C3H7N/c1-2-3-4/h2H,1,3-4H2",VVJKKWFAADXIJK-UHFFFAOYSA-N,?,53.3,100892
100896,107-15-3,107-15-3,NCCN,"1,2-DIAMINOETHANE",Ethylenediamine,"ethane-1,2-diamine",19963,DTXSID5021881,NCCN,InChI=1S/C2H8N2/c3-1-2-4/h1-4H2,PIICEJLVQHRZGT-UHFFFAOYSA-N,?,117.0,100896
100900,107-20-0,107-20-0,O=CCCl,CHLOROACETALDEHYDE,Chloroacetaldehyde,chloroacetaldehyde,19967,DTXSID4020292,O=CCCl,"InChI=1S/C2H3ClO/c3-1-2-4/h2H,1H2",QSKPIOLLBIHNAC-UHFFFAOYSA-N,?,85.5,100900
100904,107-29-9,107-29-9,C/C=N/O,ACETALDEHYDE OXIME,Acetaldehyde oxime,(1E)-N-hydroxyethanimine,19971,DTXSID2020004,CCN=O,"InChI=1S/C2H5NO/c1-2-3-4/h2H2,1H3",IFYCAQIXDKZDTB-UHFFFAOYSA-N,?,115.0,100904
100908,107-39-1|25167-70-8,107-39-1,CC(=C)CC(C)(C)C,"2,4,4-TRIMETHYL-1-PENTENE, 2,4,4-TRIMETHYLPENTENE","2,4,4-Trimethyl-1-pentene","2,4,4-trimethylpent-1-ene",19975|24449,DTXSID4026765,CC(=C)CC(C)(C)C,"InChI=1S/C8H16/c1-7(2)6-8(3,4)5/h1,6H2,2-5H3",FXNDIJDIPNCZQJ-UHFFFAOYSA-N,?,101.2,100908
100912,107-45-9,107-45-9,CC(C)(C)CC(C)(C)N,"2-Pentanamine, 2,4,4-trimethyl-","2,4,4-Trimethyl-2-pentanamine","2,4,4-trimethylpentan-2-amine",19979,DTXSID0021886,CC(C)(C)CC(C)(C)N,"InChI=1S/C8H19N/c1-7(2,3)6-8(4,5)9/h6,9H2,1-5H3",QIJIUJYANDSEKG-UHFFFAOYSA-N,?,140.0,100912
100916,107-51-7,107-51-7,C[Si](C)(O[Si](C)(C)C)O[Si](C)(C)C,OCTAMETHYLTRISILOXANE,Octamethyltrisiloxane,octamethyltrisiloxane,19983,DTXSID9040710,C[Si](C)(O[Si](C)(C)C)O[Si](C)(C)C,"InChI=1S/C8H24O2Si3/c1-11(2,3)9-13(7,8)10-12(4,5)6/h1-8H3",CXQXSVUQTKDNFP-UHFFFAOYSA-N,?,153.0,100916
100920,107-70-0,107-70-0,COC(C)(C)CC(C)=O,4-METHOXY-4-METHYL-2-PENTANONE,4-Methoxy-4-methyl-2-pentanone,4-methoxy-4-methylpentan-2-one,19987,DTXSID2025557,COC(C)(C)CC(C)=O,"InChI=1S/C7H14O2/c1-6(8)5-7(2,3)9-4/h5H2,1-4H3",KOKPBCHLPVDQTK-UHFFFAOYSA-N,?,160.0,100920
100924,107-80-2,NOCAS_870455,CC(Br)CCBr,"Butane, 1,3-dibromo-",,,19991,DTXSID30870455,CC(Br)CCBr,"InChI=1S/C4H8Br2/c1-4(6)2-3-5/h4H,2-3H2,1H3",XZNGUVQDFJHPLU-UHFFFAOYSA-N,?,174.0,100924
100928,107-84-6,107-84-6,CC(C)CCCl,"Butane, 1-chloro-3-methyl-","Butane, 1-chloro-3-methyl-",1-Chloro-3-methylbutane,19995,DTXSID2059354,CC(C)CCCl,"InChI=1S/C5H11Cl/c1-5(2)3-4-6/h5H,3-4H2,1-2H3",CZHLPWNZCJEPJB-UHFFFAOYSA-N,?,98.9,100928
100932,107-88-0,107-88-0,CC(O)CCO,"1,3-BUTANEDIOL","1,3-Butanediol","butane-1,3-diol",19999,DTXSID8026773,CC(O)CCO,"InChI=1S/C4H10O2/c1-4(6)2-3-5/h4-6H,2-3H2,1H3",PUPZLCDOIYMWBV-UHFFFAOYSA-N,?,207.5,100932
100936,107-98-2,107-98-2,COCC(C)O,1-METHOXY-2-PROPANOL,1-Methoxy-2-propanol,1-methoxypropan-2-ol,20003,DTXSID8024284,COCC(C)O,"InChI=1S/C4H10O2/c1-4(5)3-6-2/h4-5H,3H2,1-2H3",ARXJGSRGQADJSQ-UHFFFAOYSA-N,?,119.0,100936
100940,108-03-2,108-03-2,CCC[N+]([O-])=O,1-NITROPROPANE,1-Nitropropane,1-nitropropane,20007,DTXSID1020980,CCC[N+]([O-])=O,"InChI=1S/C3H7NO2/c1-2-3-4(5)6/h2-3H2,1H3",JSZOAYXJRCEYSX-UHFFFAOYSA-N,?,131.1,100940
100944,108-10-1,108-10-1,CC(C)CC(C)=O,4-METHYL-2-PENTANONE,4-Methyl-2-pentanone,4-methylpentan-2-one,20011,DTXSID5021889,CC(C)CC(C)=O,"InChI=1S/C6H12O/c1-5(2)4-6(3)7/h5H,4H2,1-3H3",NTIZESTWPVYFNL-UHFFFAOYSA-N,?,116.5,100944
100948,108-18-9,108-18-9,CC(C)NC(C)C,DIISOPROPYLAMINE,Diisopropylamine,N-(propan-2-yl)propan-2-amine,20015,DTXSID9025085,CC(C)NC(C)C,"InChI=1S/C6H15N/c1-5(2)7-6(3)4/h5-7H,1-4H3",UAOMVDZJSHZZME-UHFFFAOYSA-N,?,83.9,100948
100952,108-23-6,108-23-6,CC(C)OC(=O)Cl,ISOPROPYL CHLOROFORMATE,Isopropyl chloroformate,propan-2-yl carbonochloridate,20019,DTXSID7026786,CC(C)OC(=O)Cl,"InChI=1S/C4H7ClO2/c1-3(2)7-4(5)6/h3H,1-2H3",IVRIRQXJSNCSPQ-UHFFFAOYSA-N,?,105.0,100952
100956,108-31-6|24937-72-2,108-31-6,O=C1C=CC(=O)O1,"MALEIC ANHYDRIDE, Polymaleic anhydride","2,5-Furandione","furan-2,5-dione",20023|24441,DTXSID7024166,O=C1C=CC(=O)O1,InChI=1S/C4H2O3/c5-3-1-2-4(6)7-3/h1-2H,FPYJFEHAWHCUMM-UHFFFAOYSA-N,?,202.0,100956
100960,108-38-3,108-38-3,Cc1cc(C)ccc1,M-XYLENE,m-Xylene,C8H10,20027,DTXSID6026298,Cc1cc(C)ccc1,"InChI=1S/C8H10/c1-7-4-3-5-8(2)6-7/h3-6H,1-2H3",IVSZLXZYQVIEFR-UHFFFAOYSA-N,?,139.1,100960
100964,108-42-9,108-42-9,Nc1cc(Cl)ccc1,3-CHLOROANILINE,3-Chloroaniline,3-chloroaniline,20031,DTXSID0024761,Nc1cc(Cl)ccc1,"InChI=1S/C6H6ClN/c7-5-2-1-3-6(8)4-5/h1-4H,8H2",PNPCRKVUWYDDST-UHFFFAOYSA-N,?,230.5,100964
100968,108-46-3,108-46-3,Oc1cc(O)ccc1,RESORCINOL,Resorcinol,"benzene-1,3-diol",20035,DTXSID2021238,Oc1cc(O)ccc1,"InChI=1S/C6H6O2/c7-5-2-1-3-6(8)4-5/h1-4,7-8H",GHMLBKRAJCXXBS-UHFFFAOYSA-N,?,280.0,100968
100972,108-55-4,108-55-4,O=C1CCCC(=O)O1,GLUTARIC ANHYDRIDE,Glutaric anhydride,"dihydro-2H-pyran-2,6(3H)-dione",20039,DTXSID5044362,O=C1CCCC(=O)O1,InChI=1S/C5H6O3/c6-4-2-1-3-5(7)8-4/h1-3H2,VANNPISTIUFMLH-UHFFFAOYSA-N,?,287.0,100972
100977,108-65-6,108-65-6,COCC(C)OC(C)=O,PROPYLENE GLYCOL ME ETHER ACETATE,1-Methoxy-2-propyl acetate,1-methoxypropan-2-yl acetate,20043,DTXSID1026796,COCC(C)OC(C)=O,"InChI=1S/C6H12O3/c1-5(4-8-3)9-6(2)7/h5H,4H2,1-3H3",LLHKCFNBLRBOGN-UHFFFAOYSA-N,?,145.5,100977
100981,108-70-3,108-70-3,Clc1cc(Cl)cc(Cl)c1,"1,3,5-TRICHLOROBENZENE","1,3,5-Trichlorobenzene",C6H3Cl3,20047,DTXSID8026195,Clc1cc(Cl)cc(Cl)c1,InChI=1S/C6H3Cl3/c7-4-1-5(8)3-6(9)2-4/h1-3H,XKEFYDZQGKAQCN-UHFFFAOYSA-N,?,208.0,100981
100985,108-82-7,108-82-7,CC(C)CC(O)CC(C)C,"2,6-DIMETHYL-4-HEPTANOL","2,6-Dimethyl-4-heptanol","2,6-dimethylheptan-4-ol",20051,DTXSID8026802,CC(C)CC(O)CC(C)C,"InChI=1S/C9H20O/c1-7(2)5-9(10)6-8(3)4/h7-10H,5-6H2,1-4H3",HXQPUEQDBSPXTE-UHFFFAOYSA-N,?,174.5,100985
100989,108-86-1,108-86-1,Brc1ccccc1,BROMOBENZENE,Bromobenzene,bromobenzene,20055,DTXSID5024637,Brc1ccccc1,InChI=1S/C6H5Br/c7-6-4-2-1-3-5-6/h1-5H,QARVLSVVCXYDNA-UHFFFAOYSA-N,?,156.0,100989
100993,108-90-7,108-90-7,Clc1ccccc1,CHLOROBENZENE,Chlorobenzene,chlorobenzene,20059,DTXSID4020298,Clc1ccccc1,InChI=1S/C6H5Cl/c7-6-4-2-1-3-5-6/h1-5H,MVPPADPHJFYWMZ-UHFFFAOYSA-N,?,131.7,100993
100997,108-95-2,108-95-2,Oc1ccccc1,PHENOL,Phenol,phenol,20063,DTXSID5021124,Oc1ccccc1,"InChI=1S/C6H6O/c7-6-4-2-1-3-5-6/h1-5,7H",ISWSIDIOOBJBQZ-UHFFFAOYSA-N,?,181.8,100997
101001,109-01-3,109-01-3,CN1CCNCC1,"Piperazine, 1-methyl-",1-Methylpiperazine,1-methylpiperazine,20067,DTXSID4021898,CN1CCNCC1,"InChI=1S/C5H12N2/c1-7-4-2-6-3-5-7/h6H,2-5H2,1H3",PVOAHINGSUIXLS-UHFFFAOYSA-N,?,138.0,101001
101005,109-06-8,109-06-8,Cc1cccc[n]1,2-METHYLPYRIDINE,2-Methylpyridine,2-methylpyridine,20071,DTXSID9021899,Cc1cccc[n]1,"InChI=1S/C6H7N/c1-6-4-2-3-5-7-6/h2-5H,1H3",BSKHPKMHTQYZBB-UHFFFAOYSA-N,?,129.3,101005
101009,109-17-1,109-17-1,CC(=C)C(=O)OCCOCCOCCOCCOC(=O)C(C)=C,TETRAETHYLENEGLYCOL DIMETHACRYLATE,Tetraethyleneglycol dimethacrylate,"oxybis(ethane-2,1-diyloxyethane-2,1-diyl) bis(2-methylprop-2-enoate)",20075,DTXSID6044515,CC(=C)C(=O)OCCOCCOCCOCCOC(=O)C(C)=C,"InChI=1S/C16H26O7/c1-13(2)15(17)22-11-9-20-7-5-19-6-8-21-10-12-23-16(18)14(3)4/h1,3,5-12H2,2,4H3",LTHJXDSHSVNJKG-UHFFFAOYSA-N,?,220.0,101009
101013,109-52-4,109-52-4,CCCCC(O)=O,PENTANOIC ACID,Pentanoic acid,pentanoic acid,20079,DTXSID7021655,CCCCC(O)=O,"InChI=1S/C5H10O2/c1-2-3-4-5(6)7/h2-4H2,1H3,(H,6,7)",NQPDZGIKBAWPEJ-UHFFFAOYSA-N,?,186.1,101013
101017,109-59-1,109-59-1,CC(C)OCCO,2-Isopropoxyethanol,2-Isopropoxyethanol,C5H12O2,20083,DTXSID4047466,CC(C)OCCO,"InChI=1S/C5H12O2/c1-5(2)7-4-3-6/h5-6H,3-4H2,1-2H3",HCGFUIQPSOCUHI-UHFFFAOYSA-N,?,145.0,101017
101022,109-65-9,109-65-9,CCCCBr,1-BROMOBUTANE,1-Bromobutane,1-bromobutane,20087,DTXSID6021903,CCCCBr,"InChI=1S/C4H9Br/c1-2-3-4-5/h2-4H2,1H3",MPPPKRYCTPRNTB-UHFFFAOYSA-N,?,101.3,101022