ChemID,source_casrn,CAS,SMILES,NAME,preferred_name,iupac,MPID,dsstox_substance_id,Canonical_QSARr,InChI_Code_QSARr,InChI Key_QSARr,Salt_Solvent,BP,ID
103755,1191-08-8,1191-08-8,SCCCCS,"1,4-Butanedithiol","1,4-Butanedithiol","Butane-1,4-dithiol",22699,DTXSID0061589,SCCCCS,"InChI=1S/C4H10S2/c5-3-1-2-4-6/h5-6H,1-4H2",SMTOKHQOVJRXLK-UHFFFAOYSA-N,?,195.5,103755
103759,1191-99-7,1191-99-7,C1COC=C1,"Furan, 2,3-dihydro-","Furan, 2,3-dihydro-","2,3-Dihydrofuran",22703,DTXSID9061594,C1COC=C1,"InChI=1S/C4H6O/c1-2-4-5-3-1/h1,3H,2,4H2",JKTCBAGSMQIFNL-UHFFFAOYSA-N,?,54.5,103759
103764,1192-62-7,1192-62-7,CC(=O)c1ccco1,2-ACETYLFURAN,2-Acetylfuran,1-(2-furyl)ethanone,22707,DTXSID0051601,CC(=O)c1ccco1,"InChI=1S/C6H6O2/c1-5(7)6-3-2-4-8-6/h2-4H,1H3",IEMMBWWQXVXBEU-UHFFFAOYSA-N,?,175.0,103764
103768,1193-47-1,NOCAS_870859,CC1(C)CCCCC1=O,"CYCLOHEXANONE, 2,2-DIMETHYL-",,,22711,DTXSID30870859,CC1(C)CCCCC1=O,"InChI=1S/C8H14O/c1-8(2)6-4-3-5-7(8)9/h3-6H2,1-2H3",KNSPBSQWRKKAPI-UHFFFAOYSA-N,?,172.0,103768
103772,1194-02-1,1194-02-1,N#Cc1ccc(F)cc1,"Benzonitrile, 4-fluoro-",4-Fluorobenzonitrile,4-Fluorobenzonitrile,22715,DTXSID6061600,N#Cc1ccc(F)cc1,InChI=1S/C7H4FN/c8-7-3-1-6(5-9)2-4-7/h1-4H,AEKVBBNGWBBYLL-UHFFFAOYSA-N,?,188.8,103772
103776,1196-01-6,1196-01-6,CC1=CC(=O)[C@H]2C[C@@H]1C2(C)C,(-)Verbenone,L-Verbenone,"(1S,5S)-4,6,6-trimethylbicyclo[3.1.1]hept-3-en-2-one",22719,DTXSID9035620,CC1=CC(=O)C2CC1C2(C)C,"InChI=1S/C10H14O/c1-6-4-9(11)8-5-7(6)10(8,2)3/h4,7-8H,5H2,1-3H3",DCSCXTJOXBUFGB-UHFFFAOYSA-N,?,227.5,103776
103781,1198-37-4,1198-37-4,Cc1cc(C)[n]c2ccccc12,"2,4-DIMETHYLQUINOLINE","Quinoline, 2,4-dimethyl-","2,4-Dimethylquinoline",22723,DTXSID0061610,Cc1cc(C)[n]c2ccccc12,"InChI=1S/C11H11N/c1-8-7-9(2)12-11-6-4-3-5-10(8)11/h3-7H,1-2H3",ZTNANFDSJRRZRJ-UHFFFAOYSA-N,?,265.0,103781
103785,1202-34-2,1202-34-2,c1ccc[n]c1Nc1cccc[n]1,N-2-PYRIDINYL-2-PYRIDINAMINE,"2-Pyridinamine, N-2-pyridinyl-",N-pyridin-2-ylpyridin-2-amine,22727,DTXSID5061619,c1ccc[n]c1Nc1cccc[n]1,"InChI=1S/C10H9N3/c1-3-7-11-9(5-1)13-10-6-2-4-8-12-10/h1-8H,(H,11,12,13)",HMMPCBAWTWYFLR-UHFFFAOYSA-N,?,307.5,103785
103794,1321-89-7,1321-89-7,CC(C)CCCCCCC=O,ISODECYLADEHYDE,Isodecanal,8-methylnonanal,22731,DTXSID0061668,CC(C)CCCCCCC=O,"InChI=1S/C10H20O/c1-10(2)8-6-4-3-5-7-9-11/h9-10H,3-8H2,1-2H3",WDMOXLRWVGEXJV-UHFFFAOYSA-N,?,197.0,103794
103805,1435-50-3,1435-50-3,Clc1cc(Br)c(Cl)cc1,"BENZENE, 2-BROMO-1,4-DICHLORO-","Benzene, 2-bromo-1,4-dichloro-","2-BROMO-1,4-DICHLOROBENZENE",22736,DTXSID7075185,Clc1cc(Br)c(Cl)cc1,InChI=1S/C6H3BrCl2/c7-5-3-4(8)1-2-6(5)9/h1-3H,OVXVQBCRONSPDC-UHFFFAOYSA-N,?,226.0,103805
103809,1447-26-3,NOCAS_870873,CC(CC)=CC(=O)CC,"4-HEPTEN-3-ONE, 5-METHYL-",,,22740,DTXSID70870873,CC(CC)=CC(=O)CC,"InChI=1S/C8H14O/c1-4-7(3)6-8(9)5-2/h6H,4-5H2,1-3H3/b7-6+",XJEHTASYOBAEDB-VOTSOKGWSA-N,?,166.5,103809
103813,1453-25-4,1453-25-4,CC1CCCCCC=1,1-Methyl-cycloheptene,1-Methylcycloheptene,1-Methylcycloheptene,22744,DTXSID20162972,CC1CCCCCC=1,"InChI=1S/C8H14/c1-8-6-4-2-3-5-7-8/h6H,2-5,7H2,1H3",MREBNFRVGNTYOV-UHFFFAOYSA-N,?,136.0,103813
103817,1455-21-6,1455-21-6,CCCCCCCCCS,1-NONANETHIOL,1-Nonanethiol,nonane-1-thiol,22748,DTXSID9061704,CCCCCCCCCS,"InChI=1S/C9H20S/c1-2-3-4-5-6-7-8-9-10/h10H,2-9H2,1H3",ZVEZMVFBMOOHAT-UHFFFAOYSA-N,?,220.0,103817
103821,1459-10-5,1459-10-5,CCCCCCCCCCCCCCc1ccccc1,1-PHENYLTETRADECANE,Tetradecylbenzene,tetradecylbenzene,22752,DTXSID1051729,CCCCCCCCCCCCCCc1ccccc1,"InChI=1S/C20H34/c1-2-3-4-5-6-7-8-9-10-11-12-14-17-20-18-15-13-16-19-20/h13,15-16,18-19H,2-12,14,17H2,1H3",JZALLXAUNPOCEU-UHFFFAOYSA-N,?,359.0,103821
103825,1462-84-6,1462-84-6,Cc1ccc(C)[n]c1C,"Pyridine, 2,3,6-trimethyl-","2,3,6-Trimethylpyridine","2,3,6-trimethylpyridine",22756,DTXSID5051731,Cc1ccc(C)[n]c1C,"InChI=1S/C8H11N/c1-6-4-5-7(2)9-8(6)3/h4-5H,1-3H3",UTBIMNXEDGNJFE-UHFFFAOYSA-N,?,171.6,103825
103830,1468-83-3,1468-83-3,CC(=O)c1cc[s]c1,3-ACETYLTHIOPHENE,Methyl 3-thienyl ketone,1-thiophen-3-ylethanone,22761,DTXSID10163498,CC(=O)c1cc[s]c1,"InChI=1S/C6H6OS/c1-5(7)6-2-3-8-4-6/h2-4H,1H3",RNIDWJDZNNVFDY-UHFFFAOYSA-N,?,210.0,103830
103835,1476-23-9,1476-23-9,C=CCN=C=O,"1-Propene, 3-isocyanato-","1-Propene, 3-isocyanato-",3-isocyanatoprop-1-ene,22766,DTXSID8061719,C=CCN=C=O,"InChI=1S/C4H5NO/c1-2-3-5-4-6/h2H,1,3H2",HXBPYFMVGFDZFT-UHFFFAOYSA-N,?,88.0,103835
103839,1487-18-9,1487-18-9,C=Cc1ccco1,2-VINYLFURAN,"Furan, 2-ethenyl-",2-Ethenylfuran,22770,DTXSID8073261,C=Cc1ccco1,"InChI=1S/C6H6O/c1-2-6-4-3-5-7-6/h2-5H,1H2",QQBUHYQVKJQAOB-UHFFFAOYSA-N,?,99.5,103839
103843,1493-03-4,1493-03-4,FC(F)I,Difluoroiodomethane,Difluoroiodomethane,CHF2I,22774,DTXSID90379419,FC(F)I,InChI=1S/CHF2I/c2-1(3)4/h1H,YSLFMGDEEXOKHF-UHFFFAOYSA-N,?,21.6,103843
103847,1511-62-2,1511-62-2,FC(F)Br,Bromodifluoromethane,Bromodifluoromethane,bromo-difluoromethane,22778,DTXSID5061740,FC(F)Br,InChI=1S/CHBrF2/c2-1(3)4/h1H,GRCDJFHYVYUNHM-UHFFFAOYSA-N,?,-15.5,103847
103852,1522-22-1,1522-22-1,O=C(CC(=O)C(F)(F)F)C(F)(F)F,"2,4-Pentanedione, 1,1,1,5,5,5-hexafluoro-","2,4-Pentanedione, 1,1,1,5,5,5-hexafluoro-","1,1,1,5,5,5-Hexafluoropentane-2,4-dione",22783,DTXSID4061753,O=C(CC(=O)C(F)(F)F)C(F)(F)F,"InChI=1S/C5H2F6O2/c6-4(7,8)2(12)1-3(13)5(9,10)11/h1H2",QAMFBRUWYYMMGJ-UHFFFAOYSA-N,?,70.0,103852
103856,1530-03-6,NOCAS_865187,CCC(c1ccccc1)c1ccccc1,"1,1-DIPHENYLPROPANE",,,22787,DTXSID10865187,CCC(c1ccccc1)c1ccccc1,"InChI=1S/C15H16/c1-2-15(13-9-5-3-6-10-13)14-11-7-4-8-12-14/h3-12,15H,2H2,1H3",BUZMJVBOGDBMGI-UHFFFAOYSA-N,?,281.6,103856
103861,1540-29-0,NOCAS_862687,CC(=O)C(CCCC)C(=O)OCC,"HEXANOIC ACID, 2-ACETYL-, ETHYL ESTER",,,22791,DTXSID20862687,CC(=O)C(CCCC)C(=O)OCC,"InChI=1S/C10H18O3/c1-4-6-7-9(8(3)11)10(12)13-5-2/h9H,4-7H2,1-3H3",ZTOQBHVLCJERBS-UHFFFAOYSA-N,?,221.5,103861
103865,1546-95-8,1546-95-8,OC(=O)C(F)(F)C(F)(F)C(F)(F)C(F)(F)C(F)(F)C(F)F,"Heptanoic acid, 2,2,3,3,4,4,5,5,6,6,7,7-dodecafl","Heptanoic acid, 2,2,3,3,4,4,5,5,6,6,7,7-dodecafluoro-","2,2,3,3,4,4,5,5,6,6,7,7-Dodecafluoroheptanoic acid",22795,DTXSID70165670,OC(=O)C(F)(F)C(F)(F)C(F)(F)C(F)(F)C(F)(F)C(F)F,"InChI=1S/C7H2F12O2/c8-1(9)3(10,11)5(14,15)7(18,19)6(16,17)4(12,13)2(20)21/h1H,(H,20,21)",JZHDEEOTEUVLHR-UHFFFAOYSA-N,?,192.0,103865
103869,1551-27-5,1551-27-5,CCCc1ccc[s]1,"THIOPHENE, 2-PROPYL-",Isopropylthiophene,2-Propylthiophene,22799,DTXSID50165810,CCCc1ccc[s]1,"InChI=1S/C7H10S/c1-2-4-7-5-3-6-8-7/h3,5-6H,2,4H2,1H3",BTXIJTYYMLCUHI-UHFFFAOYSA-N,?,158.0,103869
103874,1556-18-9,1556-18-9,IC1CCCC1,"Cyclopentane, iodo-","Cyclopentane, iodo-",,22803,DTXSID2061775,IC1CCCC1,"InChI=1S/C5H9I/c6-5-3-1-2-4-5/h5H,1-4H2",PCEBAZIVZVIQEO-UHFFFAOYSA-N,?,166.5,103874
103878,1558-31-2,1558-31-2,C[Si](Cl)(Cl)C(Cl)Cl,"Silane, dichloro(dichloromethyl)methyl-","Silane, dichloro(dichloromethyl)methyl-",dichloro-(dichloromethyl)-methylsilane,22807,DTXSID1061780,C[Si](Cl)(Cl)C(Cl)Cl,"InChI=1S/C2H4Cl4Si/c1-7(5,6)2(3)4/h2H,1H3",XMNYHTVOHRUIEH-UHFFFAOYSA-N,?,149.0,103878
103882,1559-81-5,NOCAS_870887,CC1CCCc2ccccc21,"NAPHTHALENE, 1,2,3,4-TETRAHYDRO-1-METHYL-",,,22811,DTXSID60870887,CC1CCCc2ccccc21,"InChI=1S/C11H14/c1-9-5-4-7-10-6-2-3-8-11(9)10/h2-3,6,8-9H,4-5,7H2,1H3",APBBTKKLSNPFDP-UHFFFAOYSA-N,?,220.6,103882
103886,1563-83-3,1563-83-3,CCN(C(C)=O)C(C)=O,N-Acetyl-N-ethyl-acetamide,N-Acetyl-N-ethylacetamide,N-Acetyl-N-ethylacetamide,22815,DTXSID20166071,CCN(C(C)=O)C(C)=O,"InChI=1S/C6H11NO2/c1-4-7(5(2)8)6(3)9/h4H2,1-3H3",OUUWATVJTLBCFV-UHFFFAOYSA-N,?,197.0,103886
103890,1569-60-4,1569-60-4,CC(O)CCC=C(C)C,"5-Hepten-2-ol, 6-methyl-",6-Methylhept-5-en-2-ol,6-methylhept-5-en-2-ol,22819,DTXSID8051754,CC(O)CCC=C(C)C,"InChI=1S/C8H16O/c1-7(2)5-4-6-8(3)9/h5,8-9H,4,6H2,1-3H3",OHEFFKYYKJVVOX-UHFFFAOYSA-N,?,175.0,103890
103894,1573-28-0,NOCAS_870890,CCC(C)(O)CCC(C)C,"3-HEPTANOL, 3,6-DIMETHYL-",,,22823,DTXSID90870890,CCC(C)(O)CCC(C)C,"InChI=1S/C9H20O/c1-5-9(4,10)7-6-8(2)3/h8,10H,5-7H2,1-4H3",HVPGGLNDHUWMLS-UHFFFAOYSA-N,?,173.0,103894
103900,1577-22-6,1577-22-6,C=CCCCC(O)=O,5-Hexenoic acid,5-Hexenoic acid,,22829,DTXSID30166305,C=CCCCC(O)=O,"InChI=1S/C6H10O2/c1-2-3-4-5-6(7)8/h2H,1,3-5H2,(H,7,8)",XUDOZULIAWNMIU-UHFFFAOYSA-N,?,203.0,103900
103904,1587-04-8,1587-04-8,Cc1ccccc1CC=C,"BENZENE, 1-METHYL-2-(2-PROPENYL)-","Benzene, 1-methyl-2-(2-propen-1-yl)-",1-methyl-2-prop-2-enylbenzene,22833,DTXSID4074697,Cc1ccccc1CC=C,"InChI=1S/C10H12/c1-3-6-10-8-5-4-7-9(10)2/h3-5,7-8H,1,6H2,2H3",SVIHJJUMPAUQNO-UHFFFAOYSA-N,?,182.5,103904
103908,1591-31-7,1591-31-7,Ic1ccc(cc1)-c1ccccc1,"1,1'-Biphenyl, 4-iodo-","1,1'-Biphenyl, 4-iodo-",1-iodo-4-phenylbenzene,22837,DTXSID7061807,Ic1ccc(cc1)-c1ccccc1,InChI=1S/C12H9I/c13-12-8-6-11(7-9-12)10-4-2-1-3-5-10/h1-9H,NXYICUMSYKIABQ-UHFFFAOYSA-N,?,320.0,103908
103912,1600-44-8,1600-44-8,O=S1CCCC1,Tetramethylene sulfoxide,"Thiophene, tetrahydro-, 1-oxide",Thiolane 1-oxide,22841,DTXSID6061814,O=S1CCCC1,InChI=1S/C4H8OS/c5-6-3-1-2-4-6/h1-4H2,ISXOBTBCNRIIQO-UHFFFAOYSA-N,?,236.0,103912
103916,1604-11-1,22644-27-5,COC(=O)C[C@@H](C)C(=O)OC,"Butanedioic acid, methyl-, dimethyl ester",Dimethyl (R)-(+)-methylsuccinate,C7H12O4,22845,DTXSID80431434,COC(=O)CC(C)C(=O)OC,"InChI=1S/C7H12O4/c1-5(7(9)11-3)4-6(8)10-2/h5H,4H2,1-3H3",NFOQJNGQQXICBY-UHFFFAOYSA-N,?,196.0,103916
103920,1613-45-2,1613-45-2,CCSCC(C)C,"PROPANE, 1-(ETHYLTHIO)-2-METHYL-",Ethyl isobutyl sulfide,C6H14S,22849,DTXSID00333926,CCSCC(C)C,"InChI=1S/C6H14S/c1-4-7-5-6(2)3/h6H,4-5H2,1-3H3",OIRKGXWQBSPXLQ-UHFFFAOYSA-N,?,134.2,103920
103924,1615-80-1,1615-80-1,CCNNCC,"N,N'-DIETHYLHYDRAZINE","1,2-Diethylhydrazine","1,2-diethylhydrazine",22853,DTXSID1043754,CCNNCC,"InChI=1S/C4H12N2/c1-3-5-6-4-2/h5-6H,3-4H2,1-2H3",YCBOYOYVDOUXLH-UHFFFAOYSA-N,?,85.5,103924
103929,1619-57-4,1619-57-4,CC(=O)C(CC)(CC)C(=O)OCC,"BUTANOIC ACID, 2,2-DIETHYL-3-OXO-, ETHYL ESTER","Ethyl 2,2-diethylacetoacetate","ethyl 2,2-diethyl-3-oxobutanoate",22857,DTXSID60167269,CC(=O)C(CC)(CC)C(=O)OCC,"InChI=1S/C10H18O3/c1-5-10(6-2,8(4)11)9(12)13-7-3/h5-7H2,1-4H3",WEIQRLLXVVSKIL-UHFFFAOYSA-N,?,216.0,103929
103933,1629-58-9,1629-58-9,CCC(=O)C=C,1-Penten-3-one,Ethyl vinyl ketone,pent-1-en-3-one,22861,DTXSID5025318,CCC(=O)C=C,"InChI=1S/C5H8O/c1-3-5(6)4-2/h3H,1,4H2,2H3",JLIDVCMBCGBIEY-UHFFFAOYSA-N,?,103.0,103933
103938,1634-04-4,1634-04-4,COC(C)(C)C,METHYL T-BUTYL ETHER,Methyl tert-butyl ether,tert-butyl methyl ether,22865,DTXSID3020833,COC(C)(C)C,"InChI=1S/C5H12O/c1-5(2,3)6-4/h1-4H3",BZLVMXJERCGZMT-UHFFFAOYSA-N,?,55.2,103938
103942,1638-22-8,1638-22-8,CCCCc1ccc(O)cc1,P-BUTYLPHENOL,4-Butylphenol,4-butylphenol,22869,DTXSID3047425,CCCCc1ccc(O)cc1,"InChI=1S/C10H14O/c1-2-3-4-9-5-7-10(11)8-6-9/h5-8,11H,2-4H2,1H3",CYYZDBDROVLTJU-UHFFFAOYSA-N,?,248.0,103942
103946,1646-75-9,1646-75-9,CSC(C)(C)C=NO,Aldicarb oxime,Aldicarb oxime,N-hydroxy-2-methyl-2-(methylsulfanyl)propan-1-imine,22873,DTXSID9024431,CSC(C)(C)CN=O,"InChI=1S/C5H11NOS/c1-5(2,8-3)4-6-7/h4H2,1-3H3",YKGXIGMQHJBDGN-UHFFFAOYSA-N,?,210.0,103946
103950,1653-19-6,1653-19-6,C=C(Cl)C(=C)Cl,"2,3-DICHLOROBUTA-1,3-DIENE","2,3-Dichloro-1,3-butadiene","2,3-dichlorobuta-1,3-diene",22877,DTXSID1027423,C=C(Cl)C(=C)Cl,InChI=1S/C4H4Cl2/c1-3(5)4(2)6/h1-2H2,LIFLRQVHKGGNSG-UHFFFAOYSA-N,?,98.0,103950
103955,1667-01-2,1667-01-2,Cc1cc(C)c(C(C)=O)c(C)c1,"Ethanone, 1-(2,4,6-trimethylphenyl)-","2',4',6'-Trimethylacetophenone","1-(2,4,6-trimethylphenyl)ethanone",22881,DTXSID1061865,Cc1cc(C)c(C(C)=O)c(C)c1,"InChI=1S/C11H14O/c1-7-5-8(2)11(10(4)12)9(3)6-7/h5-6H,1-4H3",XWCIICLTKWRWCI-UHFFFAOYSA-N,?,241.0,103955
103959,1674-33-5,NOCAS_870901,CCCC(Cl)CCl,"PENTANE, 1,2-DICHLORO-",,,22885,DTXSID40870901,CCCC(Cl)CCl,"InChI=1S/C5H10Cl2/c1-2-3-5(7)4-6/h5H,2-4H2,1H3",PPLBPDUKNRCHGG-UHFFFAOYSA-N,?,148.3,103959
103965,1678-93-9,1678-93-9,CCCCC1CCCCC1,BUTYLCYCLOHEXANE,"Cyclohexane, butyl-",Butylcyclohexane,22890,DTXSID0061876,CCCCC1CCCCC1,"InChI=1S/C10H20/c1-2-3-7-10-8-5-4-6-9-10/h10H,2-9H2,1H3",GGBJHURWWWLEQH-UHFFFAOYSA-N,?,180.9,103965
103969,1679-07-8,1679-07-8,SC1CCCC1,CYCLOPENTANETHIOL,Cyclopentanethiol,cyclopentanethiol,22894,DTXSID1047108,SC1CCCC1,"InChI=1S/C5H10S/c6-5-3-1-2-4-5/h5-6H,1-4H2",WVDYBOADDMMFIY-UHFFFAOYSA-N,?,132.1,103969
103973,1691-17-4,1691-17-4,FC(F)OC(F)F,Di(difluoromethyl) ether,"Methane, oxybis[difluoro-",difluoromethoxy-difluoromethane,22898,DTXSID2073271,FC(F)OC(F)F,InChI=1S/C2H2F4O/c3-1(4)7-2(5)6/h1-2H,IOCGMLSHRBHNCM-UHFFFAOYSA-N,?,6.35,103973
103977,1708-29-8,1708-29-8,C1C=CCO1,"2,5-DIHYDROFURAN","2,5-Dihydrofuran","2,5-dihydrofuran",22902,DTXSID5051785,C1C=CCO1,"InChI=1S/C4H6O/c1-2-4-5-3-1/h1-2H,3-4H2",ARGCQEVBJHPOGB-UHFFFAOYSA-N,?,66.5,103977
103981,1712-64-7,1712-64-7,CC(C)O[N+]([O-])=O,ISOPROPYL NITRATE,"Nitric acid, 1-methylethyl ester",propan-2-yl nitrate,22906,DTXSID5061908,CC(C)O[N+]([O-])=O,"InChI=1S/C3H7NO3/c1-3(2)7-4(5)6/h3H,1-2H3",GAPFWGOSHOCNBM-UHFFFAOYSA-N,?,100.0,103981
103985,1721-89-7,1721-89-7,Cc1cc2ccccc2[n]c1C,"QUINOLINE, 2,3-DIMETHYL-","2,3-Dimethylquinoline","2,3-DIMETHYLQUINOLINE",22910,DTXSID00169207,Cc1cc2ccccc2[n]c1C,"InChI=1S/C11H11N/c1-8-7-10-5-3-4-6-11(10)12-9(8)2/h3-7H,1-2H3",FBOFHVFMPNNIKN-UHFFFAOYSA-N,?,263.0,103985
103989,1730-69-4,NOCAS_870906,CCCCB(Cl)CCCC,DI-n-BUTYLCHLOROBORANE,,,22914,DTXSID40870906,CCCCB(Cl)CCCC,"InChI=1S/C8H18BCl/c1-3-5-7-9(10)8-6-4-2/h3-8H2,1-2H3",INVPQTFQRFNBFL-UHFFFAOYSA-N,?,173.0,103989
103993,1738-36-9,1738-36-9,COCC#N,"Acetonitrile, methoxy-","Acetonitrile, methoxy-",2-methoxyacetonitrile,22918,DTXSID2061937,COCC#N,"InChI=1S/C3H5NO/c1-5-3-2-4/h3H2,1H3",QKPVEISEHYYHRH-UHFFFAOYSA-N,?,119.0,103993
103997,1745-81-9,1745-81-9,C=CCc1ccccc1O,"Phenol, 2-(2-propenyl)-",2-Allylphenol,2-(prop-2-en-1-yl)phenol,22922,DTXSID3022164,C=CCc1ccccc1O,"InChI=1S/C9H10O/c1-2-5-8-6-3-4-7-9(8)10/h2-4,6-7,10H,1,5H2",QIRNGVVZBINFMX-UHFFFAOYSA-N,?,220.0,103997
104001,1755-05-1,694-72-4,C1CCC2CCCC21,"PENTALENE, OCTAHYDRO-, CIS-","Pentalene, octahydro-","1,2,3,3a,4,5,6,6a-octahydropentalene",22926,DTXSID7075054,C1CCC2CCCC21,"InChI=1S/C8H14/c1-3-7-5-2-6-8(7)4-1/h7-8H,1-6H2",AEBWATHAIVJLTA-UHFFFAOYSA-N,?,139.0,104001
104006,1759-81-5,1759-81-5,CC1CC=CC1,"CYCLOPENTENE, 4-METHYL-","Cyclopentene, 4-methyl-",4-METHYLCYCLOPENTENE,22930,DTXSID30170043,CC1CC=CC1,"InChI=1S/C6H10/c1-6-4-2-3-5-6/h2-3,6H,4-5H2,1H3",FWMRUAODTCVEQK-UHFFFAOYSA-N,?,65.7,104006
104010,1783-25-1,NOCAS_862752,CN(C)C=Nc1ccccc1,"Formamidine, N,N-dimethyl-N'-phenyl-",,,22934,DTXSID10862752,CN(C)C=Nc1ccccc1,"InChI=1S/C9H12N2/c1-11(2)8-10-9-6-4-3-5-7-9/h3-8H,1-2H3/b10-8+",SRPCLECGIYMIMN-CSKARUKUSA-N,?,127.0,104010
104014,1795-04-6,1795-04-6,Cc1c(C)c[s]c1C,"THIOPHENE, 2,3,4-TRIMETHYL-","Thiophene, 2,3,4-trimethyl-","2,3,4-TRIMETHYLTHIOPHENE",22938,DTXSID2073277,Cc1c(C)c[s]c1C,"InChI=1S/C7H10S/c1-5-4-8-7(3)6(5)2/h4H,1-3H3",MAVVDCDMBKFUES-UHFFFAOYSA-N,?,162.0,104014
104018,1795-16-0,1795-16-0,CCCCCCCCCCC1CCCCC1,N-DECYLCYCLOHEXANE,"Cyclohexane, decyl-",Decylcyclohexane,22942,DTXSID8061973,CCCCCCCCCCC1CCCCC1,"InChI=1S/C16H32/c1-2-3-4-5-6-7-8-10-13-16-14-11-9-12-15-16/h16H,2-15H2,1H3",STWFZICHPLEOIC-UHFFFAOYSA-N,?,299.0,104018
104024,1795-48-8,1795-48-8,CC(C)N=C=O,"Propane, 2-isocyanato-","Propane, 2-isocyanato-",2-isocyanatopropane,22946,DTXSID3061976,CC(C)N=C=O,"InChI=1S/C4H7NO/c1-4(2)5-3-6/h4H,1-2H3",GSLTVFIVJMCNBH-UHFFFAOYSA-N,?,74.5,104024
104028,1809-10-5,1809-10-5,CCC(Br)CC,"Pentane, 3-bromo-","Pentane, 3-bromo-",3-BROMOPENTANE,22950,DTXSID2061987,CCC(Br)CC,"InChI=1S/C5H11Br/c1-3-5(6)4-2/h5H,3-4H2,1-2H3",VTOQFOCYBTVOJZ-UHFFFAOYSA-N,?,118.6,104028
104032,1821-02-9,1821-02-9,CCCC(=O)C(O)=O,2-Oxo-pentanoic acid,2-Oxopentanoic acid,2-oxopentanoic acid,22954,DTXSID3021647,CCCC(=O)C(O)=O,"InChI=1S/C5H8O3/c1-2-3-4(6)5(7)8/h2-3H2,1H3,(H,7,8)",KDVFRMMRZOCFLS-UHFFFAOYSA-N,?,179.0,104032
104036,1823-91-2,NOCAS_870913,CC(C#N)c1ccccc1,"Benzeneacetonitrile, .alpha.-methyl-",,,22958,DTXSID10870913,CC(C#N)c1ccccc1,"InChI=1S/C9H9N/c1-8(7-10)9-5-3-2-4-6-9/h2-6,8H,1H3",NVAOLENBKNECGF-UHFFFAOYSA-N,?,231.0,104036
104040,1833-51-8,1833-51-8,C[Si](C)(CCl)c1ccccc1,"Silane, (chloromethyl)dimethylphenyl-","Silane, (chloromethyl)dimethylphenyl-",chloromethyl-dimethyl-phenylsilane,22962,DTXSID9062013,C[Si](C)(CCl)c1ccccc1,"InChI=1S/C9H13ClSi/c1-11(2,8-10)9-6-4-3-5-7-9/h3-7H,8H2,1-2H3",RJCTVFQQNCNBHG-UHFFFAOYSA-N,?,225.0,104040
104044,1861-32-1,1861-32-1,COC(=O)c1c(Cl)c(Cl)c(c(Cl)c1Cl)C(=O)OC,DIMETHYL TETRACHLOROTEREPHTHALATE,Chlorthal-dimethyl,"dimethyl 2,3,5,6-tetrachlorobenzene-1,4-dicarboxylate",22966,DTXSID0024000,COC(=O)c1c(Cl)c(Cl)c(c(Cl)c1Cl)C(=O)OC,InChI=1S/C10H6Cl4O4/c1-17-9(15)3-5(11)7(13)4(10(16)18-2)8(14)6(3)12/h1-2H3,NPOJQCVWMSKXDN-UHFFFAOYSA-N,?,365.0,104044
104048,1871-52-9,NOCAS_870914,C1CC=CC=CC=C1,"1,3,5-CYCLOOCTATRIENE",,,22970,DTXSID70870914,C1CC=CC=CC=C1,"InChI=1S/C8H10/c1-2-4-6-8-7-5-3-1/h1-6H,7-8H2/b2-1-,5-3-,6-4-",ICPMUWPXCAVOOQ-XCADPSHZSA-N,?,145.5,104048
104052,1873-29-6,1873-29-6,CC(C)CN=C=O,"PROPANE, 1-ISOCYANATO-2-METHYL-","Propane, 1-isocyanato-2-methyl-",1-isocyanato-2-methylpropane,22974,DTXSID4075293,CC(C)CN=C=O,"InChI=1S/C5H9NO/c1-5(2)3-6-4-7/h5H,3H2,1-2H3",NNZVKALEGZPYKL-UHFFFAOYSA-N,?,106.0,104052
104057,1878-18-8,NOCAS_862771,CCC(C)CS,2-METHYL-1-BUTANETHIOL,,,22978,DTXSID50862771,CCC(C)CS,"InChI=1S/C5H12S/c1-3-5(2)4-6/h5-6H,3-4H2,1-2H3",WGQKBCSACFQGQY-UHFFFAOYSA-N,?,116.5,104057
104061,1885-38-7,1885-38-7,N#C/C=C/c1ccccc1,3-PHENYL-2-PROPENENITRILE,(2E)-3-Phenylprop-2-enenitrile,(2E)-3-phenylprop-2-enenitrile,22982,DTXSID8044385,N#CC=Cc1ccccc1,InChI=1S/C9H7N/c10-8-4-7-9-5-2-1-3-6-9/h1-7H/b7-4+,ZWKNLRXFUTWSOY-QPJJXVBHSA-N,?,263.8,104061
104066,1897-45-6,1897-45-6,N#Cc1c(Cl)c(Cl)c(Cl)c(C#N)c1Cl,CHLOROTHALONIL,Chlorothalonil,"2,4,5,6-tetrachlorobenzene-1,3-dicarbonitrile",22987,DTXSID0020319,N#Cc1c(Cl)c(Cl)c(Cl)c(C#N)c1Cl,InChI=1S/C8Cl4N2/c9-5-3(1-13)6(10)8(12)7(11)4(5)2-14,CRQQGFGUEAVUIL-UHFFFAOYSA-N,?,350.0,104066
104071,1932-04-3,1932-04-3,C(CN1CCCCC1)N1CCCCC1,"Piperidine, 1,1'-(1,2-ethanediyl)bis-","Piperidine, 1,1'-(1,2-ethanediyl)bis-",1-(2-piperidin-1-ylethyl)piperidine,22991,DTXSID9062067,C(CN1CCCCC1)N1CCCCC1,InChI=1S/C12H24N2/c1-3-7-13(8-4-1)11-12-14-9-5-2-6-10-14/h1-12H2,UYMQPNRUQXPLCY-UHFFFAOYSA-N,?,265.0,104071
104075,1948-33-0,1948-33-0,CC(C)(C)c1cc(O)ccc1O,2-tert-Butylhydroquinone,tert-Butylhydroquinone,"2-tert-butylbenzene-1,4-diol",22995,DTXSID6020220,CC(C)(C)c1cc(O)ccc1O,"InChI=1S/C10H14O2/c1-10(2,3)8-6-7(11)4-5-9(8)12/h4-6,11-12H,1-3H3",BGNXCDMCOKJUMV-UHFFFAOYSA-N,?,273.0,104075
104079,1973-22-4,1973-22-4,CCc1ccccc1Br,1-Bromo-2-ethylbenzene,o-Bromoethylbenzene,1-BROMO-2-ETHYLBENZENE,22999,DTXSID20173402,CCc1ccccc1Br,"InChI=1S/C8H9Br/c1-2-7-5-3-4-6-8(7)9/h3-6H,2H2,1H3",HVRUGFJYCAFAAN-UHFFFAOYSA-N,?,199.3,104079
104083,1985-59-7,1985-59-7,CC1(C)CCCc2ccccc12,"NAPHTHALENE, 1,2,3,4-TETRAHYDRO-1,1-DIMETHYL-","1,1-Dimethyl(1,2,3,4-tetrahydronaphthalene)","4,4-dimethyl-2,3-dihydro-1H-naphthalene",23003,DTXSID70173598,CC1(C)CCCc2ccccc12,"InChI=1S/C12H16/c1-12(2)9-5-7-10-6-3-4-8-11(10)12/h3-4,6,8H,5,7,9H2,1-2H3",ABIPNDAVRBMCHV-UHFFFAOYSA-N,?,221.0,104083
104089,2016-57-1,2016-57-1,CCCCCCCCCCN,N-DECYLAMINE,1-Decanamine,decan-1-amine,23009,DTXSID2022171,CCCCCCCCCCN,"InChI=1S/C10H23N/c1-2-3-4-5-6-7-8-9-10-11/h2-11H2,1H3",MHZGKXUYDGKKIU-UHFFFAOYSA-N,?,220.5,104089
104093,2029-94-9,2029-94-9,CCOc1cc(C=O)ccc1OCC,"Benzaldehyde, 3,4-diethoxy-","Benzaldehyde, 3,4-diethoxy-","3,4-Diethoxybenzaldehyde",23013,DTXSID3062108,CCOc1cc(C=O)ccc1OCC,"InChI=1S/C11H14O3/c1-3-13-10-6-5-9(8-12)7-11(10)14-4-2/h5-8H,3-4H2,1-2H3",SSTRYEXQYQGGAS-UHFFFAOYSA-N,?,279.0,104093
104097,2038-03-1,2038-03-1,NCCN1CCOCC1,4-Morpholineethanamine,2-Morpholinoethylamine,2-(morpholin-4-yl)ethanamine,23017,DTXSID4044408,NCCN1CCOCC1,InChI=1S/C6H14N2O/c7-1-2-8-3-5-9-6-4-8/h1-7H2,RWIVICVCHVMHMU-UHFFFAOYSA-N,?,205.0,104097
104101,2039-88-5,2039-88-5,C=Cc1ccccc1Br,2-BROMOSTYRENE,2-Bromostyrene,1-bromo-2-ethenylbenzene,23021,DTXSID8040777,C=Cc1ccccc1Br,"InChI=1S/C8H7Br/c1-2-7-5-3-4-6-8(7)9/h2-6H,1H2",SSZOCHFYWWVSAI-UHFFFAOYSA-N,?,209.2,104101
104105,2040-96-2,2040-96-2,CCCC1CCCC1,PROPYLCYCLOPENTANE,"Cyclopentane, propyl-",Propylcyclopentane,23025,DTXSID60174352,CCCC1CCCC1,"InChI=1S/C8H16/c1-2-5-8-6-3-4-7-8/h8H,2-7H2,1H3",KDIAMAVWIJYWHN-UHFFFAOYSA-N,?,131.0,104105