ChemID,source_casrn,CAS,SMILES,NAME,preferred_name,iupac,MPID,dsstox_substance_id,Canonical_QSARr,InChI_Code_QSARr,InChI Key_QSARr,Salt_Solvent,BP,ID
100573,97-99-4,97-99-4,OCC1CCCO1,TETRAHYDROFURFURYL ALCOHOL,Tetrahydrofurfuryl alcohol,tetrahydrofuran-2-ylmethanol,19649,DTXSID1029128,OCC1CCCO1,"InChI=1S/C5H10O2/c6-4-5-2-1-3-7-5/h5-6H,1-4H2",BSYVTEYKTMYBMK-UHFFFAOYSA-N,?,178.0,100573
100575,98-01-1,98-01-1,O=Cc1ccco1,FUFURAL,Furfural,furan-2-carbaldehyde,19651,DTXSID1020647,O=Cc1ccco1,InChI=1S/C5H4O2/c6-4-5-2-1-3-7-5/h1-4H,HYBBIBNJHNGZAN-UHFFFAOYSA-N,?,161.7,100575
100577,98-03-3,98-03-3,O=Cc1ccc[s]1,THIOPHENE-2-CARBOXALDEHYDE,Thiophene-2-carbaldehyde,thiophene-2-carbaldehyde,19652,DTXSID7052656,O=Cc1ccc[s]1,InChI=1S/C5H4OS/c6-4-5-2-1-3-7-5/h1-4H,CNUDBTRUORMMPA-UHFFFAOYSA-N,?,197.0,100577
100578,98-06-6,98-06-6,CC(C)(C)c1ccccc1,T-BUTYLBENZENE,tert-Butylbenzene,tert-butylbenzene,19653,DTXSID3047138,CC(C)(C)c1ccccc1,"InChI=1S/C10H14/c1-10(2,3)9-7-5-4-6-8-9/h4-8H,1-3H3",YTZKOQUCBOVLHL-UHFFFAOYSA-N,?,169.1,100578
100580,98-08-8,98-08-8,FC(F)(F)c1ccccc1,BENZOTRIFLUORIDE,Benzotrifluoride,(trifluoromethyl)benzene,19655,DTXSID2024589,FC(F)(F)c1ccccc1,"InChI=1S/C7H5F3/c8-7(9,10)6-4-2-1-3-5-6/h1-5H",GETTZEONDQJALK-UHFFFAOYSA-N,?,102.1,100580
100581,98-09-9,98-09-9,O=S(=O)(Cl)c1ccccc1,BENZENESULFONYL CHLORIDE,Benzenesulfonyl chloride,benzenesulfonyl chloride,19656,DTXSID1026619,O=S(=O)(Cl)c1ccccc1,"InChI=1S/C6H5ClO2S/c7-10(8,9)6-4-2-1-3-5-6/h1-5H",CSKNSYBAZOQPLR-UHFFFAOYSA-N,?,252.0,100581
100582,98-13-5,98-13-5,Cl[Si](Cl)(Cl)c1ccccc1,PHENYLTRICHLOROSILANE,Trichlorophenylsilane,trichloro(phenyl)silane,19657,DTXSID5026621,Cl[Si](Cl)(Cl)c1ccccc1,"InChI=1S/C6H5Cl3Si/c7-10(8,9)6-4-2-1-3-5-6/h1-5H",ORVMIVQULIKXCP-UHFFFAOYSA-N,?,201.0,100582
100584,98-16-8,98-16-8,Nc1cc(ccc1)C(F)(F)F,3-TRIFLUOROMETHYLANILINE,3-(Trifluoromethyl)aniline,3-(trifluoromethyl)aniline,19659,DTXSID9024512,Nc1cc(ccc1)C(F)(F)F,"InChI=1S/C7H6F3N/c8-7(9,10)5-2-1-3-6(11)4-5/h1-4H,11H2",VIUDTWATMPPKEL-UHFFFAOYSA-N,?,187.0,100584
100585,98-17-9,98-17-9,Oc1cc(ccc1)C(F)(F)F,M-TRIFLUOROMETHYLPHENOL,3-(Trifluoromethyl)phenol,3-(trifluoromethyl)phenol,19660,DTXSID7052658,Oc1cc(ccc1)C(F)(F)F,"InChI=1S/C7H5F3O/c8-7(9,10)5-2-1-3-6(11)4-5/h1-4,11H",UGEJOEBBMPOJMT-UHFFFAOYSA-N,?,178.0,100585
100586,98-19-1,98-19-1,CC(C)(C)c1cc(C)cc(C)c1,"Benzene, 1-(1,1-dimethylethyl)-3,5-dimethyl-",5-Tert-butyl-m-xylene,"1-tert-butyl-3,5-dimethylbenzene",19661,DTXSID2052659,CC(C)(C)c1cc(C)cc(C)c1,"InChI=1S/C12H18/c1-9-6-10(2)8-11(7-9)12(3,4)5/h6-8H,1-5H3",FZSPYHREEHYLCB-UHFFFAOYSA-N,?,207.0,100586
100588,98-29-3,98-29-3,CC(C)(C)c1cc(O)c(O)cc1,"1,2-Benzenediol, 4-(1,1-dimethylethyl)-",4-tert-Butylcatechol,"4-tert-butylbenzene-1,2-diol",19663,DTXSID5024687,CC(C)(C)c1cc(O)c(O)cc1,"InChI=1S/C10H14O2/c1-10(2,3)7-4-5-8(11)9(12)6-7/h4-6,11-12H,1-3H3",XESZUVZBAMCAEJ-UHFFFAOYSA-N,?,285.0,100588
100589,98-46-4,98-46-4,[O-][N+](=O)c1cc(ccc1)C(F)(F)F,M-TRIFLUOROMETHYLNITROBENZENE,1-Nitro-3-(trifluoromethyl)benzene,1-nitro-3-(trifluoromethyl)benzene,19664,DTXSID9025794,[O-][N+](=O)c1cc(ccc1)C(F)(F)F,"InChI=1S/C7H4F3NO2/c8-7(9,10)5-2-1-3-6(4-5)11(12)13/h1-4H",WHNAMGUAXHGCHH-UHFFFAOYSA-N,?,202.8,100589
100590,98-51-1,98-51-1,Cc1ccc(cc1)C(C)(C)C,P-(T-BUTYL)TOLUENE,4-tert-Butyltoluene,1-tert-butyl-4-methylbenzene,19665,DTXSID1024704,Cc1ccc(cc1)C(C)(C)C,"InChI=1S/C11H16/c1-9-5-7-10(8-6-9)11(2,3)4/h5-8H,1-4H3",QCWXDVFBZVHKLV-UHFFFAOYSA-N,?,190.0,100590
100592,98-55-5|2438-12-2|10482-56-1,98-55-5|10482-56-1,CC1CCC(CC=1)C(C)(C)O,"ALPHA-TERPINEOL, 2-(4-Methyl-cyclohex-3-enyl)-propan-2-ol, 2-(4-METHYL-3-CYLOHEXENYL)ISOPROPANOL",alpha-Terpineol,2-(4-methylcyclohex-3-en-1-yl)propan-2-ol,19667|23238|24097,DTXSID5026625|DTXSID5052672,CC1CCC(CC=1)C(C)(C)O,"InChI=1S/C10H18O/c1-8-4-6-9(7-5-8)10(2,3)11/h4,9,11H,5-7H2,1-3H3",WUOACPNHFRMFPN-UHFFFAOYSA-N,?,219.16666666666697,100592
100593,98-56-6,98-56-6,FC(F)(F)c1ccc(Cl)cc1,4-(TRIFLUOROMETHYL)CHLOROBENZENE,1-Chloro-4-(trifluoromethyl)benzene,1-chloro-4-(trifluoromethyl)benzene,19668,DTXSID7024821,FC(F)(F)c1ccc(Cl)cc1,"InChI=1S/C7H4ClF3/c8-6-3-1-5(2-4-6)7(9,10)11/h1-4H",QULYNCCPRWKEMF-UHFFFAOYSA-N,?,138.5,100593
100594,98-82-8,98-82-8,CC(C)c1ccccc1,CUMENE,Cumene,propan-2-ylbenzene,19669,DTXSID1021827,CC(C)c1ccccc1,"InChI=1S/C9H12/c1-8(2)9-6-4-3-5-7-9/h3-8H,1-2H3",RWGFKTVRMDUZSP-UHFFFAOYSA-N,?,152.4,100594
100596,98-84-0,NOCAS_862301,CC(N)c1ccccc1,"BENZENEMETHANAMINE, .alpha.-METHYL-",,,19671,DTXSID40862301,CC(N)c1ccccc1,"InChI=1S/C8H11N/c1-7(9)8-5-3-2-4-6-8/h2-7H,9H2,1H3",RQEUFEKYXDPUSK-UHFFFAOYSA-N,?,185.0,100596
100597,98-85-1,98-85-1,CC(O)c1ccccc1,ALPHA-METHYLBENZYL ALCOHOL,alpha-Methylbenzyl alcohol,1-phenylethanol,19672,DTXSID1020859,CC(O)c1ccccc1,"InChI=1S/C8H10O/c1-7(9)8-5-3-2-4-6-8/h2-7,9H,1H3",WAPNOHKVXSQRPX-UHFFFAOYSA-N,?,205.0,100597
100598,98-86-2,98-86-2,CC(=O)c1ccccc1,ACETOPHENONE,Acetophenone,1-phenylethanone,19673,DTXSID6021828,CC(=O)c1ccccc1,"InChI=1S/C8H8O/c1-7(9)8-5-3-2-4-6-8/h2-6H,1H3",KWOLFJPFCHCOCG-UHFFFAOYSA-N,?,202.0,100598
100600,98-88-4,98-88-4,O=C(Cl)c1ccccc1,BENZOYL CHLORIDE,Benzoyl chloride,benzoyl chloride,19675,DTXSID9026631,O=C(Cl)c1ccccc1,InChI=1S/C7H5ClO/c8-7(9)6-4-2-1-3-5-6/h1-5H,PASDCCFISLVPSO-UHFFFAOYSA-N,?,197.2,100600
100601,98-89-5,98-89-5,OC(=O)C1CCCCC1,CYCLOHEXANECARBOXYLIC ACID,Cyclohexanecarboxylic acid,Cyclohexanecarboxylic acid,19676,DTXSID8059180,OC(=O)C1CCCCC1,"InChI=1S/C7H12O2/c8-7(9)6-4-2-1-3-5-6/h6H,1-5H2,(H,8,9)",NZNMSOFKMUBTKW-UHFFFAOYSA-N,?,232.5,100601
100602,98-94-2,98-94-2,CN(C)C1CCCCC1,"Cyclohexanamine, N,N-dimethyl-","N,N-Dimethylcyclohexylamine","N,N-dimethylcyclohexanamine",19677,DTXSID9026633,CN(C)C1CCCCC1,"InChI=1S/C8H17N/c1-9(2)8-6-4-3-5-7-8/h8H,3-7H2,1-2H3",SVYKKECYCPFKGB-UHFFFAOYSA-N,?,160.0,100602
100604,99-02-5,99-02-5,CC(=O)c1cccc(Cl)c1,M-CHLOROACETOPHENONE,"Ethanone, 1-(3-chlorophenyl)-",1-(3-chlorophenyl)ethanone,19679,DTXSID8059182,CC(=O)c1cccc(Cl)c1,"InChI=1S/C8H7ClO/c1-6(10)7-3-2-4-8(9)5-7/h2-5H,1H3",UUWJBXKHMMQDED-UHFFFAOYSA-N,?,244.0,100604
100605,99-03-6,99-03-6,CC(=O)c1cccc(N)c1,M-AMINOACETOPHENONE,3-Aminoacetophenone,1-(3-aminophenyl)ethanone,19680,DTXSID0021830,CC(=O)c1cccc(N)c1,"InChI=1S/C8H9NO/c1-6(10)7-3-2-4-8(9)5-7/h2-5H,9H2,1H3",CKQHAYFOPRIUOM-UHFFFAOYSA-N,?,289.5,100605
100606,99-07-0,99-07-0,CN(C)c1cccc(O)c1,"PHENOL, 3-(DIMETHYLAMINO)-",3-Dimethylaminophenol,3-(dimethylamino)phenol,19681,DTXSID0025101,CN(C)c1cccc(O)c1,"InChI=1S/C8H11NO/c1-9(2)7-4-3-5-8(10)6-7/h3-6,10H,1-2H3",MESJRHHDBDCQTH-UHFFFAOYSA-N,?,266.5,100606
100608,99-09-2,99-09-2,Nc1cc(ccc1)[N+]([O-])=O,3-NITROANILINE,3-Nitroaniline,3-nitroaniline,19683,DTXSID6025725,Nc1cc(ccc1)[N+]([O-])=O,"InChI=1S/C6H6N2O2/c7-5-2-1-3-6(4-5)8(9)10/h1-4H,7H2",XJCVRTZCHMZPBD-UHFFFAOYSA-N,?,306.0,100608
100609,99-12-7,99-12-7,Cc1cc(cc(C)c1)[N+]([O-])=O,"Benzene, 1,3-dimethyl-5-nitro-","1,3-Dimethyl-5-nitrobenzene","1,3-dimethyl-5-nitrobenzene",19684,DTXSID7025136,Cc1cc(cc(C)c1)[N+]([O-])=O,"InChI=1S/C8H9NO2/c1-6-3-7(2)5-8(4-6)9(10)11/h3-5H,1-2H3",BYFNZOKBMZKTSC-UHFFFAOYSA-N,?,274.0,100609
100610,99-35-4,99-35-4,[O-][N+](=O)c1cc(cc(c1)[N+]([O-])=O)[N+]([O-])=O,"1,3,5-TRINITROBENZENE","1,3,5-Trinitrobenzene","1,3,5-trinitrobenzene",19685,DTXSID6021406,[O-][N+](=O)c1cc(cc(c1)[N+]([O-])=O)[N+]([O-])=O,InChI=1S/C6H3N3O6/c10-7(11)4-1-5(8(12)13)3-6(2-4)9(14)15/h1-3H,UATJOMSPNYCXIX-UHFFFAOYSA-N,?,315.0,100610
100612,99-48-9,99-48-9,CC1=CCC(CC1O)C(C)=C,"2-Cyclohexen-1-ol, 2-methyl-5-(1-methylethenyl)-",Carveol,2-methyl-5-(prop-1-en-2-yl)cyclohex-2-en-1-ol,19687,DTXSID3024736,CC1=CCC(CC1O)C(C)=C,"InChI=1S/C10H16O/c1-7(2)9-5-4-8(3)10(11)6-9/h4,9-11H,1,5-6H2,2-3H3",BAVONGHXFVOKBV-UHFFFAOYSA-N,?,228.0,100612
100613,99-49-0|2244-16-8|6485-40-1,99-49-0|2244-16-8|6485-40-1,CC1=CCC(CC1=O)C(C)=C,"CARVONE, 2-Cyclohexen-1-one, 2-methyl-5-(1-methylethenyl), (R)-(-)-CARVONE",dl-Carvone,2-methyl-5-(prop-1-en-2-yl)cyclohex-2-en-1-one,19688|23159|23925,DTXSID8047426|DTXSID8020256|DTXSID7041413,CC1=CCC(CC1=O)C(C)=C,"InChI=1S/C10H14O/c1-7(2)9-5-4-8(3)10(11)6-9/h4,9H,1,5-6H2,2-3H3",ULDHMXUKGWMISQ-UHFFFAOYSA-N,?,230.16666666666697,100613
100614,99-51-4,99-51-4,Cc1cc(ccc1C)[N+]([O-])=O,"1,2-DIMETHYL-4-NITROBENZENE","1,2-Dimethyl-4-nitrobenzene","1,2-dimethyl-4-nitrobenzene",19689,DTXSID2025133,Cc1cc(ccc1C)[N+]([O-])=O,"InChI=1S/C8H9NO2/c1-6-3-4-8(9(10)11)5-7(6)2/h3-5H,1-2H3",HFZKOYWDLDYELC-UHFFFAOYSA-N,?,251.0,100614
100616,99-62-7,99-62-7,CC(C)c1cc(ccc1)C(C)C,"1,3-DIISOPROPYLBENZENE","1,3-Diisopropylbenzene","1,3-di(propan-2-yl)benzene",19691,DTXSID8026640,CC(C)c1cc(ccc1)C(C)C,"InChI=1S/C12H18/c1-9(2)11-6-5-7-12(8-11)10(3)4/h5-10H,1-4H3",UNEATYXSUBPPKP-UHFFFAOYSA-N,?,203.2,100616
100617,99-63-8,99-63-8,O=C(Cl)c1cc(ccc1)C(=O)Cl,"1,3-Benzenedicarbonyl dichloride","1,3-Benzenedicarbonyl dichloride","benzene-1,3-dicarbonyl dichloride",19692,DTXSID3026641,O=C(Cl)c1cc(ccc1)C(=O)Cl,InChI=1S/C8H4Cl2O2/c9-7(11)5-2-1-3-6(4-5)8(10)12/h1-4H,FDQSRULYDNDXQB-UHFFFAOYSA-N,?,276.0,100617
100618,99-65-0,99-65-0,[O-][N+](=O)c1cc(ccc1)[N+]([O-])=O,"1,3-DINITROBENZENE","1,3-Dinitrobenzene","1,3-dinitrobenzene",19693,DTXSID9024065,[O-][N+](=O)c1cc(ccc1)[N+]([O-])=O,InChI=1S/C6H4N2O4/c9-7(10)5-2-1-3-6(4-5)8(11)12/h1-4H,WDCYWAQPCXBPJA-UHFFFAOYSA-N,?,291.0,100618
100620,99-71-8,99-71-8,CCC(C)c1ccc(O)cc1,P-(SEC-BUTYL)PHENOL,4-(Butan-2-yl)phenol,4-(butan-2-yl)phenol,19695,DTXSID7022332,CCC(C)c1ccc(O)cc1,"InChI=1S/C10H14O/c1-3-8(2)9-4-6-10(11)7-5-9/h4-8,11H,3H2,1-2H3",ZUTYZAFDFLLILI-UHFFFAOYSA-N,?,241.0,100620
100621,99-75-2,99-75-2,Cc1ccc(cc1)C(=O)OC,"BENZOIC ACID, 4-METHYL-, METHYL ESTER",Methyl 4-methylbenzoate,methyl 4-methylbenzoate,19696,DTXSID4025668,Cc1ccc(cc1)C(=O)OC,"InChI=1S/C9H10O2/c1-7-3-5-8(6-4-7)9(10)11-2/h3-6H,1-2H3",QSSJZLPUHJDYKF-UHFFFAOYSA-N,?,220.0,100621
100622,99-77-4,99-77-4,CCOC(=O)c1ccc(cc1)[N+]([O-])=O,ETHYL-P-NITROBENZOATE,Ethyl 4-nitrobenzoate,ethyl 4-nitrobenzoate,19697,DTXSID1052666,CCOC(=O)c1ccc(cc1)[N+]([O-])=O,"InChI=1S/C9H9NO4/c1-2-14-9(11)7-3-5-8(6-4-7)10(12)13/h3-6H,2H2,1H3",PHWSCBWNPZDYRI-UHFFFAOYSA-N,?,186.3,100622
100624,99-83-2,99-83-2,CC(C)C1CC=C(C)C=C1,alpha-PHELLANDRENE,alpha-Phellandrene,"2-methyl-5-(propan-2-yl)cyclohexa-1,3-diene",19699,DTXSID4047593,CC(C)C1CC=C(C)C=C1,"InChI=1S/C10H16/c1-8(2)10-6-4-9(3)5-7-10/h4-6,8,10H,7H2,1-3H3",OGLDWXZKYODSOB-UHFFFAOYSA-N,?,172.0,100624
100625,99-84-3,99-84-3,CC(C)C1CCC(=C)CC=1,"CYCLOHEXENE, 4-METHYLENE-1-(1-METHYLETHYL)-","p-Mentha-1(7),3-diene",4-methylidene-1-propan-2-ylcyclohexene,19700,DTXSID60243931,CC(C)C1CCC(=C)CC=1,"InChI=1S/C10H16/c1-8(2)10-6-4-9(3)5-7-10/h6,8H,3-5,7H2,1-2H3",SCWPFSIZUZUCCE-UHFFFAOYSA-N,?,173.5,100625
100626,99-85-4,99-85-4,CC1CC=C(CC=1)C(C)C,GAMMA-TERPINENE,gamma-Terpinene,"1-methyl-4-(propan-2-yl)cyclohexa-1,4-diene",19701,DTXSID6041210,CC1CC=C(CC=1)C(C)C,"InChI=1S/C10H16/c1-8(2)10-6-4-9(3)5-7-10/h4,7-8H,5-6H2,1-3H3",YKFLAYDHMOASIY-UHFFFAOYSA-N,?,183.0,100626
100628,99-87-6|25155-15-1,99-87-6,Cc1ccc(cc1)C(C)C,"P-CYMENE, P-I-PROPYLTOLUENE",p-Cymene,1-methyl-4-(propan-2-yl)benzene,19703|24448,DTXSID3026645,Cc1ccc(cc1)C(C)C,"InChI=1S/C10H14/c1-8(2)10-6-4-9(3)5-7-10/h4-8H,1-3H3",HFPZCAJZSCWRBC-UHFFFAOYSA-N,?,176.8,100628
100629,99-88-7,99-88-7,CC(C)c1ccc(N)cc1,P-ISOPROPYLANILINE,Cumidine,4-propan-2-ylaniline,19704,DTXSID20243932,CC(C)c1ccc(N)cc1,"InChI=1S/C9H13N/c1-7(2)8-3-5-9(10)6-4-8/h3-7H,10H2,1-2H3",LRTFPLFDLJYEKT-UHFFFAOYSA-N,?,225.0,100629
100630,99-89-8,99-89-8,CC(C)c1ccc(O)cc1,P-ISOPROPYLPHENOL,4-Isopropylphenol,4-(propan-2-yl)phenol,19705,DTXSID5042299,CC(C)c1ccc(O)cc1,"InChI=1S/C9H12O/c1-7(2)8-3-5-9(10)6-4-8/h3-7,10H,1-2H3",YQUQWHNMBPIWGK-UHFFFAOYSA-N,?,230.0,100630
100632,99-91-2,99-91-2,CC(=O)c1ccc(Cl)cc1,1-(4-CHLOROPHENYL)ETHANONE,1-(4-Chlorophenyl)ethanone,1-(4-chlorophenyl)ethanone,19707,DTXSID1052668,CC(=O)c1ccc(Cl)cc1,"InChI=1S/C8H7ClO/c1-6(10)7-2-4-8(9)5-3-7/h2-5H,1H3",BUZYGTVTZYSBCU-UHFFFAOYSA-N,?,232.0,100632
100633,99-92-3,99-92-3,CC(=O)c1ccc(N)cc1,4-AMINOACETOPHENONE,4-Aminoacetophenone,1-(4-aminophenyl)ethanone,19708,DTXSID6052669,CC(=O)c1ccc(N)cc1,"InChI=1S/C8H9NO/c1-6(10)7-2-4-8(9)5-3-7/h2-5H,9H2,1H3",GPRYKVSEZCQIHD-UHFFFAOYSA-N,?,294.0,100633
100634,99-97-8,99-97-8,Cc1ccc(cc1)N(C)C,"N,N,4-TRIMETHYLANILINE","N,N,4-Trimethylaniline","N,N,4-trimethylaniline",19709,DTXSID0021832,Cc1ccc(cc1)N(C)C,"InChI=1S/C9H13N/c1-8-4-6-9(7-5-8)10(2)3/h4-7H,1-3H3",GYVGXEWAOAAJEU-UHFFFAOYSA-N,?,211.0,100634
100636,99-99-0,99-99-0,Cc1ccc(cc1)[N+]([O-])=O,P-NITROTOLUENE,4-Nitrotoluene,1-methyl-4-nitrobenzene,19711,DTXSID5023792,Cc1ccc(cc1)[N+]([O-])=O,"InChI=1S/C7H7NO2/c1-6-2-4-7(5-3-6)8(9)10/h2-5H,1H3",ZPTVNYMJQHSSEA-UHFFFAOYSA-N,?,238.3,100636
100637,100-00-5,100-00-5,[O-][N+](=O)c1ccc(Cl)cc1,P-CHLORONITROBENZENE,1-Chloro-4-nitrobenzene,1-chloro-4-nitrobenzene,19712,DTXSID5020281,[O-][N+](=O)c1ccc(Cl)cc1,InChI=1S/C6H4ClNO2/c7-5-1-3-6(4-2-5)8(9)10/h1-4H,CZGCEKJOLUNIFY-UHFFFAOYSA-N,?,242.0,100637
100638,100-01-6,100-01-6,Nc1ccc(cc1)[N+]([O-])=O,4-NITROANILINE,4-Nitroaniline,4-nitroaniline,19713,DTXSID8020961,Nc1ccc(cc1)[N+]([O-])=O,"InChI=1S/C6H6N2O2/c7-5-1-3-6(4-2-5)8(9)10/h1-4H,7H2",TYMLOMAKGOJONV-UHFFFAOYSA-N,?,332.0,100638
100640,100-06-1,100-06-1,CC(=O)c1ccc(cc1)OC,P-METHOXYACETOPHENONE,4'-Methoxyacetophenone,1-(4-methoxyphenyl)ethanone,19715,DTXSID2044347,CC(=O)c1ccc(cc1)OC,"InChI=1S/C9H10O2/c1-7(10)8-3-5-9(11-2)6-4-8/h3-6H,1-2H3",NTPLXRHDUXRPNE-UHFFFAOYSA-N,?,258.0,100640
100641,100-07-2,100-07-2,COc1ccc(cc1)C(=O)Cl,"Benzoyl chloride, 4-methoxy-","Benzoyl chloride, 4-methoxy-",4-Methoxybenzoyl chloride,19716,DTXSID9059204,COc1ccc(cc1)C(=O)Cl,"InChI=1S/C8H7ClO2/c1-11-7-4-2-6(3-5-7)8(9)10/h2-5H,1H3",MXMOTZIXVICDSD-UHFFFAOYSA-N,?,262.5,100641
100642,100-09-4,100-09-4,COc1ccc(cc1)C(O)=O,P-METHOXYBENZOIC ACID,"Benzoic acid, 4-methoxy-",4-Methoxybenzoic acid,19717,DTXSID4059205,COc1ccc(cc1)C(O)=O,"InChI=1S/C8H8O3/c1-11-7-4-2-6(3-5-7)8(9)10/h2-5H,1H3,(H,9,10)",ZEYHEAKUIGZSGI-UHFFFAOYSA-N,?,276.5,100642
100644,100-17-4,100-17-4,COc1ccc(cc1)[N+]([O-])=O,P-NITROANISOLE,p-Nitroanisole,1-Methoxy-4-nitrobenzene,19719,DTXSID9059208,COc1ccc(cc1)[N+]([O-])=O,"InChI=1S/C7H7NO3/c1-11-7-4-2-6(3-5-7)8(9)10/h2-5H,1H3",BNUHAJGCKIQFGE-UHFFFAOYSA-N,?,274.0,100644
100645,100-18-5,100-18-5,CC(C)c1ccc(cc1)C(C)C,"1,4-DIISOPROPYLBENZENE","1,4-Diisopropylbenzene","1,4-di(propan-2-yl)benzene",19720,DTXSID2026652,CC(C)c1ccc(cc1)C(C)C,"InChI=1S/C12H18/c1-9(2)11-5-7-12(8-6-11)10(3)4/h5-10H,1-4H3",SPPWGCYEYAMHDT-UHFFFAOYSA-N,?,210.3,100645
100646,100-20-9,100-20-9,O=C(Cl)c1ccc(cc1)C(=O)Cl,"1,4-Benzenedicarbonyl dichloride","1,4-Benzenedicarbonyl dichloride","benzene-1,4-dicarbonyl dichloride",19721,DTXSID7026653,O=C(Cl)c1ccc(cc1)C(=O)Cl,InChI=1S/C8H4Cl2O2/c9-7(11)5-1-2-6(4-3-5)8(10)12/h1-4H,LXEJRKJRKIFVNY-UHFFFAOYSA-N,?,258.0,100646
100648,100-25-4,100-25-4,[O-][N+](=O)c1ccc(cc1)[N+]([O-])=O,P-DINITROBENZENE,"1,4-Dinitrobenzene","1,4-dinitrobenzene",19723,DTXSID0021836,[O-][N+](=O)c1ccc(cc1)[N+]([O-])=O,InChI=1S/C6H4N2O4/c9-7(10)5-1-2-6(4-3-5)8(11)12/h1-4H,FYFDQJRXFWGIBS-UHFFFAOYSA-N,?,297.0,100648
100649,100-29-8,100-29-8,CCOc1ccc(cc1)[N+]([O-])=O,P-NITROPHENETOLE,1-Ethoxy-4-nitrobenzene,1-ethoxy-4-nitrobenzene,19724,DTXSID7026655,CCOc1ccc(cc1)[N+]([O-])=O,"InChI=1S/C8H9NO3/c1-2-12-8-5-3-7(4-6-8)9(10)11/h3-6H,2H2,1H3",NWPKEYHUZKMWKJ-UHFFFAOYSA-N,?,283.0,100649
100650,100-35-6,100-35-6,CCN(CCCl)CC,"N,N-Diethyl-2-chloroethylamine","Ethanamine, 2-chloro-N,N-diethyl-","2-chloro-N,N-diethylethanamine",19725,DTXSID8043868,CCN(CCCl)CC,"InChI=1S/C6H14ClN/c1-3-8(4-2)6-5-7/h3-6H2,1-2H3",YMDNODNLFSHHCV-UHFFFAOYSA-N,?,146.5,100650
100652,100-37-8,100-37-8,CCN(CCO)CC,2-(DIETHYLAMINO)-ETHANOL,"N,N-Diethylethanolamine",C6H15NO,19727,DTXSID5021837,CCN(CCO)CC,"InChI=1S/C6H15NO/c1-3-7(4-2)5-6-8/h8H,3-6H2,1-2H3",BFSVOASYOCHEOV-UHFFFAOYSA-N,?,163.0,100652
100653,100-39-0,100-39-0,BrCc1ccccc1,ALPHA-BROMOTOLUENE,alpha-Bromotoluene,(bromomethyl)benzene,19728,DTXSID8024658,BrCc1ccccc1,"InChI=1S/C7H7Br/c8-6-7-4-2-1-3-5-7/h1-5H,6H2",AGEZXYOZHKGVCM-UHFFFAOYSA-N,?,201.0,100653
100654,100-40-3,100-40-3,C=CC1CC=CCC1,4-VINYLCYCLOHEXENE,4-Vinylcyclohexene,4-ethenylcyclohexene,19729,DTXSID3021437,C=CC1CC=CCC1,"InChI=1S/C8H12/c1-2-8-6-4-3-5-7-8/h2-4,8H,1,5-7H2",BBDKZWKEPDTENS-UHFFFAOYSA-N,?,128.0,100654
100656,100-42-5,100-42-5,C=Cc1ccccc1,STYRENE,Styrene,ethenylbenzene,19731,DTXSID2021284,C=Cc1ccccc1,"InChI=1S/C8H8/c1-2-8-6-4-3-5-7-8/h2-7H,1H2",PPBRXRYQALVLMV-UHFFFAOYSA-N,?,145.0,100656
100657,100-44-7,100-44-7,ClCc1ccccc1,ALPHA-CHLOROTOLUENE,Benzyl chloride,(chloromethyl)benzene,19732,DTXSID0020153,ClCc1ccccc1,"InChI=1S/C7H7Cl/c8-6-7-4-2-1-3-5-7/h1-5H,6H2",KCXMKQUNVWSEMD-UHFFFAOYSA-N,?,179.0,100657
100658,100-46-9,100-46-9,NCc1ccccc1,BENZYLAMINE,Benzylamine,1-phenylmethanamine,19733,DTXSID5021839,NCc1ccccc1,"InChI=1S/C7H9N/c8-6-7-4-2-1-3-5-7/h1-5H,6,8H2",WGQKYBSKWIADBV-UHFFFAOYSA-N,?,185.0,100658
100660,100-48-1,100-48-1,N#Cc1cc[n]cc1,4-CYANOPYRIDINE,4-Pyridinecarbonitrile,pyridine-4-carbonitrile,19735,DTXSID9041528,N#Cc1cc[n]cc1,InChI=1S/C6H4N2/c7-5-6-1-3-8-4-2-6/h1-4H,GPHQHTOMRSGBNZ-UHFFFAOYSA-N,?,213.5,100660
100661,100-49-2,100-49-2,OCC1CCCCC1,Cyclohexanemethanol,Cyclohexanemethanol,Cyclohexylmethanol,19736,DTXSID3059212,OCC1CCCCC1,"InChI=1S/C7H14O/c8-6-7-4-2-1-3-5-7/h7-8H,1-6H2",VSSAZBXXNIABDN-UHFFFAOYSA-N,?,183.0,100661
100662,100-50-5,100-50-5,O=CC1CC=CCC1,3-CYCLOHEXENE-1-CARBOXALDEHYDE,3-Cyclohexene-1-carboxaldehyde,cyclohex-3-ene-1-carbaldehyde,19737,DTXSID1026661,O=CC1CC=CCC1,"InChI=1S/C7H10O/c8-6-7-4-2-1-3-5-7/h1-2,6-7H,3-5H2",DCFDVJPDXYGCOK-UHFFFAOYSA-N,?,105.0,100662
100664,100-52-7,100-52-7,O=Cc1ccccc1,BENZALDEHYDE,Benzaldehyde,benzaldehyde,19739,DTXSID8039241,O=Cc1ccccc1,InChI=1S/C7H6O/c8-6-7-4-2-1-3-5-7/h1-6H,HUMNYLRZRPPJDN-UHFFFAOYSA-N,?,179.0,100664
100665,100-53-8,100-53-8,SCc1ccccc1,Benzenemethanethiol,Benzenemethanethiol,phenylmethanethiol,19740,DTXSID6026664,SCc1ccccc1,"InChI=1S/C7H8S/c8-6-7-4-2-1-3-5-7/h1-5,8H,6H2",UENWRTRMUIOCKN-UHFFFAOYSA-N,?,194.5,100665
100666,100-54-9,100-54-9,N#Cc1c[n]ccc1,3-CYANOPYRIDINE,3-Pyridinecarbonitrile,pyridine-3-carbonitrile,19741,DTXSID1026665,N#Cc1c[n]ccc1,"InChI=1S/C6H4N2/c7-4-6-2-1-3-8-5-6/h1-3,5H",GZPHSAQLYPIAIN-UHFFFAOYSA-N,?,206.9,100666
100668,100-60-7,100-60-7,CNC1CCCCC1,"Cyclohexanamine, N-methyl-","Cyclohexanamine, N-methyl-",N-Methylcyclohexanamine,19743,DTXSID3059216,CNC1CCCCC1,"InChI=1S/C7H15N/c1-8-7-5-3-2-4-6-7/h7-8H,2-6H2,1H3",XTUVJUMINZSXGF-UHFFFAOYSA-N,?,147.0,100668
100669,100-61-8,100-61-8,CNc1ccccc1,N-METHYLANILINE,N-Methylaniline,N-methylaniline,19744,DTXSID9021841,CNc1ccccc1,"InChI=1S/C7H9N/c1-8-7-5-3-2-4-6-7/h2-6,8H,1H3",AFBPFSWMIHJQDM-UHFFFAOYSA-N,?,196.2,100669
100670,100-63-0,100-63-0,NNc1ccccc1,PHENYL HYDRAZINE,Phenylhydrazine,phenylhydrazine,19745,DTXSID8021147,NNc1ccccc1,"InChI=1S/C6H8N2/c7-8-6-4-2-1-3-5-6/h1-5,8H,7H2",HKOOXMFOFWEVGF-UHFFFAOYSA-N,?,243.5,100670
100672,100-66-3,100-66-3,COc1ccccc1,ANISOLE,Anisole,methoxybenzene,19747,DTXSID4041608,COc1ccccc1,"InChI=1S/C7H8O/c1-8-7-5-3-2-4-6-7/h2-6H,1H3",RDOXTESZEPMUJZ-UHFFFAOYSA-N,?,153.7,100672
100673,100-68-5,100-68-5,CSc1ccccc1,THIOANISOLE,"Benzene, (methylthio)-",methylsulfanylbenzene,19748,DTXSID8059217,CSc1ccccc1,"InChI=1S/C7H8S/c1-8-7-5-3-2-4-6-7/h2-6H,1H3",HNKJADCVZUBCPG-UHFFFAOYSA-N,?,193.0,100673
100674,100-69-6,100-69-6,C=Cc1cccc[n]1,2-VINYLPYRIDINE,2-Vinylpyridine,2-ethenylpyridine,19749,DTXSID1026667,C=Cc1cccc[n]1,"InChI=1S/C7H7N/c1-2-7-5-3-4-6-8-7/h2-6H,1H2",KGIGUEBEKRSTEW-UHFFFAOYSA-N,?,159.5,100674
100676,100-71-0,100-71-0,CCc1cccc[n]1,2-ETHYLPYRIDINE,2-Ethylpyridine,2-ethylpyridine,19751,DTXSID4021844,CCc1cccc[n]1,"InChI=1S/C7H9N/c1-2-7-5-3-4-6-8-7/h3-6H,2H2,1H3",NRGGMCIBEHEAIL-UHFFFAOYSA-N,?,148.6,100676
100678,100-73-2,100-73-2,O=CC1CCC=CO1,"2H-Pyran-2-carboxaldehyde, 3,4-dihydro-","3,4-Dihydro-2H-pyran-2-carbaldehyde","3,4-Dihydro-2H-pyran-2-carbaldehyde",19752,DTXSID30274151,O=CC1CCC=CO1,"InChI=1S/C6H8O2/c7-5-6-3-1-2-4-8-6/h2,4-6H,1,3H2",NPWYTMFWRRIFLK-UHFFFAOYSA-N,?,146.0,100678
100679,100-74-3,100-74-3,CCN1CCOCC1,4-ETHYLMORPHOLINE,N-Ethylmorpholine,4-ethylmorpholine,19753,DTXSID5025312,CCN1CCOCC1,"InChI=1S/C6H13NO/c1-2-7-3-5-8-6-4-7/h2-6H2,1H3",HVCNXQOWACZAFN-UHFFFAOYSA-N,?,138.5,100679