ChemID,source_casrn,CAS,SMILES,NAME,preferred_name,iupac,MPID,dsstox_substance_id,Canonical_QSARr,InChI_Code_QSARr,InChI Key_QSARr,Salt_Solvent,BP,ID
101246,118-69-4,118-69-4,Cc1c(Cl)cccc1Cl,"2,6-DICHLOROTOLUENE","2,6-Dichlorotoluene","1,3-dichloro-2-methylbenzene",20310,DTXSID3040697,Cc1c(Cl)cccc1Cl,"InChI=1S/C7H6Cl2/c1-5-6(8)3-2-4-7(5)9/h2-4H,1H3",DMEDNTFWIHCBRK-UHFFFAOYSA-N,?,198.0,101246
101248,118-79-6,118-79-6,Oc1c(Br)cc(Br)cc1Br,"2,4,6-TRIBROMOPHENOL","2,4,6-Tribromophenol","2,4,6-tribromophenol",20312,DTXSID6021959,Oc1c(Br)cc(Br)cc1Br,"InChI=1S/C6H3Br3O/c7-3-1-4(8)6(10)5(9)2-3/h1-2,10H",BSWWXRFVMJHFBN-UHFFFAOYSA-N,?,286.0,101248
101249,118-90-1,118-90-1,Cc1ccccc1C(O)=O,O-TOLUIC ACID,2-Methylbenzoic acid,2-methylbenzoic acid,20313,DTXSID6026161,Cc1ccccc1C(O)=O,"InChI=1S/C8H8O2/c1-6-4-2-3-5-7(6)8(9)10/h2-5H,1H3,(H,9,10)",ZWLPBLYKEWSWPD-UHFFFAOYSA-N,?,259.0,101249
101250,118-91-2,118-91-2,OC(=O)c1ccccc1Cl,2-CHLOROBENZOIC ACID,2-Chlorobenzoic acid,2-chlorobenzoic acid,20314,DTXSID4024771,OC(=O)c1ccccc1Cl,"InChI=1S/C7H5ClO2/c8-6-4-2-1-3-5(6)7(9)10/h1-4H,(H,9,10)",IKCLCGXPQILATA-UHFFFAOYSA-N,?,287.0,101250
101252,119-36-8,119-36-8,COC(=O)c1ccccc1O,METHYL SALICYLATE,Methyl salicylate,methyl 2-hydroxybenzoate,20316,DTXSID5025659,COC(=O)c1ccccc1O,"InChI=1S/C8H8O3/c1-11-8(10)6-4-2-3-5-7(6)9/h2-5,9H,1H3",OSWPMRLSEDHDFF-UHFFFAOYSA-N,?,222.9,101252
101253,119-53-9|579-44-2,119-53-9,OC(C(=O)c1ccccc1)c1ccccc1,"BENZOIN, DL-BENZOIN",Benzoin,"2-hydroxy-1,2-diphenylethanone",20317|21332,DTXSID1020144,OC(C(=O)c1ccccc1)c1ccccc1,"InChI=1S/C14H12O2/c15-13(11-7-3-1-4-8-11)14(16)12-9-5-2-6-10-12/h1-10,13,15H",ISAOCJYIOMOJEB-UHFFFAOYSA-N,?,344.0,101253
101254,119-61-9,119-61-9,O=C(c1ccccc1)c1ccccc1,BENZOPHENONE,Benzophenone,diphenylmethanone,20318,DTXSID0021961,O=C(c1ccccc1)c1ccccc1,InChI=1S/C13H10O/c14-13(11-7-3-1-4-8-11)12-9-5-2-6-10-12/h1-10H,RWCCWEUUXYIKHB-UHFFFAOYSA-N,?,305.4,101254
101256,119-65-3,119-65-3,c1[n]ccc2ccccc21,ISOQUINOLINE,Isoquinoline,isoquinoline,20320,DTXSID2047644,c1[n]ccc2ccccc21,InChI=1S/C9H7N/c1-2-4-9-7-10-6-5-8(9)3-1/h1-7H,AWJUIBRHMBBTKR-UHFFFAOYSA-N,?,243.2,101256
101257,119-84-6,119-84-6,O=C1CCc2ccccc2O1,"2H-1-Benzopyran-2-one, 3,4-dihydro-","3,4-Dihydrocoumarin","3,4-dihydro-2H-chromen-2-one",20321,DTXSID2020474,O=C1CCc2ccccc2O1,"InChI=1S/C9H8O2/c10-9-6-5-7-3-1-2-4-8(7)11-9/h1-4H,5-6H2",VMUXSMXIQBNMGZ-UHFFFAOYSA-N,?,272.0,101257
101258,119-90-4,119-90-4,COc1cc(ccc1N)-c1cc(OC)c(N)cc1,"3,3'-DIMETHOXYBENZIDINE","3,3'-Dimethoxybenzidine","3,3'-dimethoxybiphenyl-4,4'-diamine",20322,DTXSID3025091,COc1cc(ccc1N)-c1cc(OC)c(N)cc1,"InChI=1S/C14H16N2O2/c1-17-13-7-9(3-5-11(13)15)10-4-6-12(16)14(8-10)18-2/h3-8H,15-16H2,1-2H3",JRBJSXQPQWSCCF-UHFFFAOYSA-N,?,356.0,101258
101260,120-12-7,120-12-7,c1c2ccccc2cc2ccccc21,ANTHRACENE,Anthracene,anthracene,20324,DTXSID0023878,c1c2ccccc2cc2ccccc21,InChI=1S/C14H10/c1-2-6-12-10-14-8-4-3-7-13(14)9-11(12)5-1/h1-10H,MWPLVEDNUUSJAV-UHFFFAOYSA-N,?,339.9,101260
101261,120-14-9,120-14-9,COc1ccc(C=O)cc1OC,"BENZALDEHYDE, 3,4-DIMETHOXY-",Veratraldehyde,"3,4-dimethoxybenzaldehyde",20325,DTXSID7026285,COc1ccc(C=O)cc1OC,"InChI=1S/C9H10O3/c1-11-8-4-3-7(6-10)5-9(8)12-2/h3-6H,1-2H3",WJUFSDZVCOTFON-UHFFFAOYSA-N,?,281.0,101261
101262,120-15-0,120-15-0,COc1cc2CCCNc2cc1,"Quinoline, 1,2,3,4-tetrahydro-6-methoxy-","Quinoline, 1,2,3,4-tetrahydro-6-methoxy-","6-Methoxy-1,2,3,4-tetrahydroquinoline",20326,DTXSID3059505,COc1cc2CCCNc2cc1,"InChI=1S/C10H13NO/c1-12-9-4-5-10-8(7-9)3-2-6-11-10/h4-5,7,11H,2-3,6H2,1H3",FRXSZNDVFUDTIR-UHFFFAOYSA-N,?,284.0,101262
101264,120-33-2,120-33-2,Cc1cc(ccc1)C(=O)OCC,Ethyl m-methylbenzoate,Ethyl m-toluate,Ethyl 3-methylbenzoate,20328,DTXSID70152641,Cc1cc(ccc1)C(=O)OCC,"InChI=1S/C10H12O2/c1-3-12-10(11)9-6-4-5-8(2)7-9/h4-7H,3H2,1-2H3",WSJNYOVBJSOQST-UHFFFAOYSA-N,?,234.0,101264
101265,120-43-4,120-43-4,CCOC(=O)N1CCNCC1,"1-Piperazinecarboxylic acid, ethyl ester","1-Piperazinecarboxylic acid, ethyl ester",Ethyl piperazine-1-carboxylate,20329,DTXSID7059511,CCOC(=O)N1CCNCC1,"InChI=1S/C7H14N2O2/c1-2-11-7(10)9-5-3-8-4-6-9/h8H,2-6H2,1H3",LNOQURRKNJKKBU-UHFFFAOYSA-N,?,237.0,101265
101266,120-47-8,120-47-8,CCOC(=O)c1ccc(O)cc1,"P-HYDROXYBENZOIC ACID,ETHYL ESTER",Ethylparaben,ethyl 4-hydroxybenzoate,20330,DTXSID9022528,CCOC(=O)c1ccc(O)cc1,"InChI=1S/C9H10O3/c1-2-12-9(11)7-3-5-8(10)6-4-7/h3-6,10H,2H2,1H3",NUVBSKCKDOMJSU-UHFFFAOYSA-N,?,297.5,101266
101268,120-51-4,120-51-4,O=C(OCc1ccccc1)c1ccccc1,BENZYL BENZOATE,Benzyl benzoate,benzyl benzoate,20332,DTXSID8029153,O=C(OCc1ccccc1)c1ccccc1,"InChI=1S/C14H12O2/c15-14(13-9-5-2-6-10-13)16-11-12-7-3-1-4-8-12/h1-10H,11H2",SESFRYSPDFLNCH-UHFFFAOYSA-N,?,323.5,101268
101269,120-57-0,120-57-0,O=Cc1cc2OCOc2cc1,PIPERONAL,Piperonal,"1,3-benzodioxole-5-carbaldehyde",20333,DTXSID7025924,O=Cc1cc2OCOc2cc1,"InChI=1S/C8H6O3/c9-4-6-1-2-7-8(3-6)11-5-10-7/h1-4H,5H2",SATCULPHIDQDRE-UHFFFAOYSA-N,?,263.0,101269
101270,120-58-1,120-58-1,CC=Cc1cc2OCOc2cc1,ISOSAFROLE,Isosafrole,"5-(prop-1-en-1-yl)-1,3-benzodioxole",20334,DTXSID2020767,CC=Cc1cc2OCOc2cc1,"InChI=1S/C10H10O2/c1-2-3-8-4-5-9-10(6-8)12-7-11-9/h2-6H,7H2,1H3/b3-2+",VHVOLFRBFDOUSH-NSCUHMNNSA-N,?,253.0,101270
101272,120-66-1,120-66-1,Cc1ccccc1NC(C)=O,"ACETAMIDE, N-(2-METHYLPHENYL)-",N-Acetyl-o-toluidine,N-(2-methylphenyl)acetamide,20336,DTXSID1024413,Cc1ccccc1NC(C)=O,"InChI=1S/C9H11NO/c1-7-5-3-4-6-9(7)10-8(2)11/h3-6H,1-2H3,(H,10,11)",BPEXTIMJLDWDTL-UHFFFAOYSA-N,?,296.0,101272
101273,120-71-8,120-71-8,Cc1ccc(OC)c(N)c1,2-METHOXY-5-METHYLBENZENAMINE,2-Methoxy-5-methylaniline,2-methoxy-5-methylaniline,20337,DTXSID1020350,Cc1ccc(OC)c(N)c1,"InChI=1S/C8H11NO/c1-6-3-4-8(10-2)7(9)5-6/h3-5H,9H2,1-2H3",WXWCDTXEKCVRRO-UHFFFAOYSA-N,?,235.0,101273
101274,120-72-9,120-72-9,c1cccc2[nH]ccc21,INDOLE,Indole,1H-indole,20338,DTXSID0020737,c1cccc2[nH]ccc21,"InChI=1S/C8H7N/c1-2-4-8-7(3-1)5-6-9-8/h1-6,9H",SIKJAQJRHWYJAI-UHFFFAOYSA-N,?,254.0,101274
101276,120-80-9,120-80-9,Oc1ccccc1O,CATECHOL,Catechol,"benzene-1,2-diol",20340,DTXSID3020257,Oc1ccccc1O,"InChI=1S/C6H6O2/c7-5-3-1-2-4-6(5)8/h1-4,7-8H",YCIMNLLNPGFGHC-UHFFFAOYSA-N,?,245.5,101276
101277,120-82-1,120-82-1,Clc1cc(Cl)c(Cl)cc1,"1,2,4-TRICHLOROBENZENE","1,2,4-Trichlorobenzene",C6H3Cl3,20341,DTXSID0021965,Clc1cc(Cl)c(Cl)cc1,InChI=1S/C6H3Cl3/c7-4-1-2-5(8)6(9)3-4/h1-3H,PBKONEOXTCPAFI-UHFFFAOYSA-N,?,213.5,101277
101278,120-83-2,120-83-2,Oc1ccc(Cl)cc1Cl,"2,4-DICHLOROPHENOL","2,4-Dichlorophenol","2,4-dichlorophenol",20342,DTXSID1020439,Oc1ccc(Cl)cc1Cl,"InChI=1S/C6H4Cl2O/c7-4-1-2-6(9)5(8)3-4/h1-3,9H",HFZWRUODUSTPEG-UHFFFAOYSA-N,?,210.0,101278
101280,120-92-3,120-92-3,O=C1CCCC1,CYCLOPENTANONE,Cyclopentanone,cyclopentanone,20344,DTXSID3029154,O=C1CCCC1,InChI=1S/C5H8O/c6-5-3-1-2-4-5/h1-4H2,BGTOWKSIORTVQH-UHFFFAOYSA-N,?,130.5,101280
101281,120-94-5,120-94-5,CN1CCCC1,1-METHYL-PYRROLIDINE,N-Methylpyrrolidine,1-methylpyrrolidine,20345,DTXSID8042210,CN1CCCC1,"InChI=1S/C5H11N/c1-6-4-2-3-5-6/h2-5H2,1H3",AVFZOVWCLRSYKC-UHFFFAOYSA-N,?,81.0,101281
101282,121-14-2,121-14-2,Cc1ccc(cc1[N+]([O-])=O)[N+]([O-])=O,"2,4-DINITROTOLUENE","2,4-Dinitrotoluene","1-methyl-2,4-dinitrobenzene",20346,DTXSID0020529,Cc1ccc(cc1[N+]([O-])=O)[N+]([O-])=O,"InChI=1S/C7H6N2O4/c1-5-2-3-6(8(10)11)4-7(5)9(12)13/h2-4H,1H3",RMBFBMJGBANMMK-UHFFFAOYSA-N,?,300.0,101282
101284,121-32-4,121-32-4,CCOc1cc(C=O)ccc1O,"BENZALDEHYDE, 3-ETHOXY-4-HYDROXY-",3-Ethoxy-4-hydroxybenzaldehyde,3-ethoxy-4-hydroxybenzaldehyde,20348,DTXSID5021968,CCOc1cc(C=O)ccc1O,"InChI=1S/C9H10O3/c1-2-12-9-5-7(6-10)3-4-8(9)11/h3-6,11H,2H2,1H3",CBOQJANXLMLOSS-UHFFFAOYSA-N,?,294.0,101284
101285,121-33-5,121-33-5,COc1cc(C=O)ccc1O,VANILLIN,4-Hydroxy-3-methoxybenzaldehyde,4-hydroxy-3-methoxybenzaldehyde,20349,DTXSID0021969,COc1cc(C=O)ccc1O,"InChI=1S/C8H8O3/c1-11-8-4-6(5-9)2-3-7(8)10/h2-5,10H,1H3",MWOOGOJBHIARFG-UHFFFAOYSA-N,?,285.0,101285
101286,121-43-7|63156-11-6,121-43-7,COB(OC)OC,"METHYL BORATE, TRIMETHYL BORATE",Trimethyl borate,trimethyl borate,20350|24625,DTXSID0037738,COB(OC)OC,InChI=1S/C3H9BO3/c1-5-4(6-2)7-3/h1-3H3,WRECIMRULFAWHA-UHFFFAOYSA-N,?,68.0,101286
101288,121-45-9,121-45-9,COP(OC)OC,TRIMETHYL PHOSPHITE,Trimethyl phosphite,trimethyl phosphite,20352,DTXSID4026979,COP(OC)OC,InChI=1S/C3H9O3P/c1-4-7(5-2)6-3/h1-3H3,CYTQBVOFDCPGCX-UHFFFAOYSA-N,?,111.5,101288
101289,121-46-0,121-46-0,C1C2C=CC1C=C2,"BICYCLO(2.2.1)HEPTA-2,5-DIENE","2,5-Norbornadiene","bicyclo[2.2.1]hepta-2,5-diene",20353,DTXSID1059523,C1C2C=CC1C=C2,"InChI=1S/C7H8/c1-2-7-4-3-6(1)5-7/h1-4,6-7H,5H2",SJYNFBVQFBRSIB-UHFFFAOYSA-N,?,89.5,101289
101290,121-69-7,121-69-7,CN(C)c1ccccc1,"N,N-DIMETHYLANILINE","N,N-Dimethylaniline","N,N-dimethylaniline",20354,DTXSID2020507,CN(C)c1ccccc1,"InChI=1S/C8H11N/c1-9(2)8-6-4-3-5-7-8/h3-7H,1-2H3",JLTDJTHDQAWBAV-UHFFFAOYSA-N,?,193.45,101290
101292,121-72-2,121-72-2,Cc1cccc(c1)N(C)C,"M-TOLUIDINE-N,N-DIMETHYL","N,N,3-Trimethylaniline","N,N,3-trimethylaniline",20356,DTXSID9051618,Cc1cccc(c1)N(C)C,"InChI=1S/C9H13N/c1-8-5-4-6-9(7-8)10(2)3/h4-7H,1-3H3",CWOMTHDOJCARBY-UHFFFAOYSA-N,?,212.0,101292
101293,121-73-3,121-73-3,[O-][N+](=O)c1cccc(Cl)c1,3-CHLORO-NITROBENZENE,1-Chloro-3-nitrobenzene,1-chloro-3-nitrobenzene,20357,DTXSID4021971,[O-][N+](=O)c1cccc(Cl)c1,InChI=1S/C6H4ClNO2/c7-5-2-1-3-6(4-5)8(9)10/h1-4H,KMAQZIILEGKYQZ-UHFFFAOYSA-N,?,236.0,101293
101294,121-86-8,121-86-8,Cc1ccc(cc1Cl)[N+]([O-])=O,2-CHLORO-4-NITROTOLUENE,2-Chloro-1-methyl-4-nitrobenzene,2-chloro-1-methyl-4-nitrobenzene,20358,DTXSID3026984,Cc1ccc(cc1Cl)[N+]([O-])=O,"InChI=1S/C7H6ClNO2/c1-5-2-3-6(9(10)11)4-7(5)8/h2-4H,1H3",LLYXJBROWQDVMI-UHFFFAOYSA-N,?,260.0,101294
101296,121-90-4,121-90-4,[O-][N+](=O)c1cccc(c1)C(=O)Cl,"Benzoyl chloride, 3-nitro-",3-Nitrobenzoyl chloride,3-nitrobenzoyl chloride,20360,DTXSID9025740,[O-][N+](=O)c1cccc(c1)C(=O)Cl,InChI=1S/C7H4ClNO3/c8-7(10)5-2-1-3-6(4-5)9(11)12/h1-4H,NXTNASSYJUXJDV-UHFFFAOYSA-N,?,276.5,101296
101297,121-98-2,121-98-2,COC(=O)c1ccc(cc1)OC,"P-ANISIC ACID, METHYL ESTER",Methyl 4-methoxybenzoate,methyl 4-methoxybenzoate,20361,DTXSID7047645,COC(=O)c1ccc(cc1)OC,"InChI=1S/C9H10O3/c1-11-8-5-3-7(4-6-8)9(10)12-2/h3-6H,1-2H3",DDIZAANNODHTRB-UHFFFAOYSA-N,?,256.0,101297
101298,122-00-9,122-00-9,Cc1ccc(cc1)C(C)=O,P-METHYLACETOPHENONE,p-Methylacetophenone,1-(4-methylphenyl)ethanone,20362,DTXSID9044374,Cc1ccc(cc1)C(C)=O,"InChI=1S/C9H10O/c1-7-3-5-9(6-4-7)8(2)10/h3-6H,1-2H3",GNKZMNRKLCTJAY-UHFFFAOYSA-N,?,226.0,101298
101300,122-03-2,122-03-2,CC(C)c1ccc(C=O)cc1,"Benzaldehyde, 4-(1-methylethyl)-",4-Isopropylbenzaldehyde,4-(propan-2-yl)benzaldehyde,20364,DTXSID9021974,CC(C)c1ccc(C=O)cc1,"InChI=1S/C10H12O/c1-8(2)10-5-3-9(7-11)4-6-10/h3-8H,1-2H3",WTWBUQJHJGUZCY-UHFFFAOYSA-N,?,235.5,101300
101301,122-07-6,122-07-6,CNCC(OC)OC,"Ethanamine, 2,2-dimethoxy-N-methyl-","2,2-Dimethoxyethyl(methyl)amine","2,2-dimethoxy-N-methylethanamine",20365,DTXSID3051620,CNCC(OC)OC,"InChI=1S/C5H13NO2/c1-6-4-5(7-2)8-3/h5-6H,4H2,1-3H3",HUMIEJNVCICTPJ-UHFFFAOYSA-N,?,140.0,101301
101302,122-09-8,122-09-8,CC(C)(N)Cc1ccccc1,PHENTERMINE,Phentermine,2-methyl-1-phenylpropan-2-amine,20366,DTXSID9023461,CC(C)(N)Cc1ccccc1,"InChI=1S/C10H15N/c1-10(2,11)8-9-6-4-3-5-7-9/h3-7H,8,11H2,1-2H3",DHHVAGZRUROJKS-UHFFFAOYSA-N,?,205.0,101302
101304,122-35-0,NOCAS_870477,CC(Oc1ccccc1)C(=O)Cl,"Propanoyl chloride, 2-phenoxy-",,,20368,DTXSID50870477,CC(Oc1ccccc1)C(=O)Cl,"InChI=1S/C9H9ClO2/c1-7(9(10)11)12-8-5-3-2-4-6-8/h2-7H,1H3",BDSSZTXPZHIYHM-UHFFFAOYSA-N,?,147.0,101304
101305,122-37-2,122-37-2,Oc1ccc(cc1)Nc1ccccc1,"PHENOL, 4-(PHENYLAMINO)-",4-Anilinophenol,4-(phenylamino)phenol,20369,DTXSID5037739,Oc1ccc(cc1)Nc1ccccc1,"InChI=1S/C12H11NO/c14-12-8-6-11(7-9-12)13-10-4-2-1-3-5-10/h1-9,13-14H",JTTMYKSFKOOQLP-UHFFFAOYSA-N,?,330.0,101305
101306,122-39-4,122-39-4,c1ccccc1Nc1ccccc1,DIPHENYLAMINE,Diphenylamine,N-phenylaniline,20370,DTXSID4021975,c1ccccc1Nc1ccccc1,"InChI=1S/C12H11N/c1-3-7-11(8-4-1)13-12-9-5-2-6-10-12/h1-10,13H",DMBHHRLKUKUOEG-UHFFFAOYSA-N,?,302.0,101306
101308,122-51-0,122-51-0,CCOC(OCC)OCC,ETHYL ORTHOFORMATE,Ethyl orthoformate,(diethoxymethoxy)ethane,20372,DTXSID8041957,CCOC(OCC)OCC,"InChI=1S/C7H16O3/c1-4-8-7(9-5-2)10-6-3/h7H,4-6H2,1-3H3",GKASDNZWUGIAMG-UHFFFAOYSA-N,?,143.0,101308
101309,122-52-1,122-52-1,CCOP(OCC)OCC,"Phosphorous acid, triethyl ester",Triethyl phosphite,triethyl phosphite,20373,DTXSID2026991,CCOP(OCC)OCC,"InChI=1S/C6H15O3P/c1-4-7-10(8-5-2)9-6-3/h4-6H2,1-3H3",BDZBKCUKTQZUTL-UHFFFAOYSA-N,?,157.9,101309
101310,122-56-5,122-56-5,CCCCB(CCCC)CCCC,TRI-n-BUTYLBORANE,"Borane, tributyl-",Tributylborane,20374,DTXSID9059543,CCCCB(CCCC)CCCC,"InChI=1S/C12H27B/c1-4-7-10-13(11-8-5-2)12-9-6-3/h4-12H2,1-3H3",CMHHITPYCHHOGT-UHFFFAOYSA-N,?,209.0,101310
101312,122-59-8,122-59-8,OC(=O)COc1ccccc1,PHENOXYACETIC ACID,Phenoxyacetic acid,phenoxyacetic acid,20376,DTXSID9025873,OC(=O)COc1ccccc1,"InChI=1S/C8H8O3/c9-8(10)6-11-7-4-2-1-3-5-7/h1-5H,6H2,(H,9,10)",LCPDWSOZIOUXRV-UHFFFAOYSA-N,?,285.0,101312
101313,122-60-1,122-60-1,C(Oc1ccccc1)C1CO1,PHENYL GLYDIDYL ETHER,Phenyl glycidyl ether,2-(phenoxymethyl)oxirane,20377,DTXSID8021145,C(Oc1ccccc1)C1CO1,"InChI=1S/C9H10O2/c1-2-4-8(5-3-1)10-6-9-7-11-9/h1-5,9H,6-7H2",FQYUMYWMJTYZTK-UHFFFAOYSA-N,?,245.0,101313
101314,122-63-4,122-63-4,CCC(=O)OCc1ccccc1,BENZYL PROPIONATE,Benzyl propanoate,benzyl propanoate,20378,DTXSID4044791,CCC(=O)OCc1ccccc1,"InChI=1S/C10H12O2/c1-2-10(11)12-8-9-6-4-3-5-7-9/h3-7H,2,8H2,1H3",VHOMAPWVLKRQAZ-UHFFFAOYSA-N,?,220.0,101314
101316,122-70-3,122-70-3,CCC(=O)OCCc1ccccc1,2-PHENYLETHYL PROPIONATE,2-Phenylethyl propionate,2-phenylethyl propanoate,20380,DTXSID6035156,CCC(=O)OCCc1ccccc1,"InChI=1S/C11H14O2/c1-2-11(12)13-9-8-10-6-4-3-5-7-10/h3-7H,2,8-9H2,1H3",HVGZQCSMLUDISR-UHFFFAOYSA-N,?,238.0,101316
101317,122-73-6,122-73-6,CC(C)CCOCc1ccccc1,"Benzene,  (3-methylbutoxy)methyl -",Benzyl 3-methylbutyl ether,benzyl 3-methylbutyl ether,20381,DTXSID7047439,CC(C)CCOCc1ccccc1,"InChI=1S/C12H18O/c1-11(2)8-9-13-10-12-6-4-3-5-7-12/h3-7,11H,8-10H2,1-2H3",RXXCIBALSKQCAE-UHFFFAOYSA-N,?,237.0,101317
101318,122-78-1,122-78-1,O=CCc1ccccc1,PHENYLACETALDEHYDE,Phenylacetaldehyde,phenylacetaldehyde,20382,DTXSID3021483,O=CCc1ccccc1,"InChI=1S/C8H8O/c9-7-6-8-4-2-1-3-5-8/h1-5,7H,6H2",DTUQWGWMVIHBKE-UHFFFAOYSA-N,?,195.0,101318
101320,122-80-5,122-80-5,CC(=O)Nc1ccc(N)cc1,P-AMINOACETANILIDE,4-Aminoacetanilide,N-(4-aminophenyl)acetamide,20384,DTXSID7024455,CC(=O)Nc1ccc(N)cc1,"InChI=1S/C8H10N2O/c1-6(11)10-8-4-2-7(9)3-5-8/h2-5H,9H2,1H3,(H,10,11)",CHMBIJAOCISYEW-UHFFFAOYSA-N,?,267.0,101320
101321,122-84-9,122-84-9,CC(=O)Cc1ccc(cc1)OC,"2-Propanone, 1-(4-methoxyphenyl)-","2-Propanone, 1-(4-methoxyphenyl)-",1-(4-methoxyphenyl)propan-2-one,20385,DTXSID9059545,CC(=O)Cc1ccc(cc1)OC,"InChI=1S/C10H12O2/c1-8(11)7-9-3-5-10(12-2)6-4-9/h3-6H,7H2,1-2H3",WFWKNGZODAOLEO-UHFFFAOYSA-N,?,268.0,101321
101322,122-95-2,122-95-2,CCOc1ccc(cc1)OCC,"Benzene, 1,4-diethoxy-","Benzene, 1,4-diethoxy-","1,4-Diethoxybenzene",20386,DTXSID9059549,CCOc1ccc(cc1)OCC,"InChI=1S/C10H14O2/c1-3-11-9-5-7-10(8-6-9)12-4-2/h5-8H,3-4H2,1-2H3",VWGNFIQXBYRDCH-UHFFFAOYSA-N,?,246.0,101322
101324,122-98-5,122-98-5,OCCNc1ccccc1,2-ANILINOETHANOL,"Ethanol, 2-(phenylamino)-",2-(Phenylamino)ethanol,20388,DTXSID8059550,OCCNc1ccccc1,"InChI=1S/C8H11NO/c10-7-6-9-8-4-2-1-3-5-8/h1-5,9-10H,6-7H2",MWGATWIBSKHFMR-UHFFFAOYSA-N,?,279.5,101324
101325,122-99-6,122-99-6,OCCOc1ccccc1,2-PHENOXYETHANOL,2-Phenoxyethanol,2-phenoxyethanol,20389,DTXSID9021976,OCCOc1ccccc1,"InChI=1S/C8H10O2/c9-6-7-10-8-4-2-1-3-5-8/h1-5,9H,6-7H2",QCDWFXQBSFUVSP-UHFFFAOYSA-N,?,245.0,101325
101326,123-00-2,123-00-2,NCCCN1CCOCC1,4-Morpholinepropanamine,4-Morpholinepropanamine,3-(morpholin-4-yl)propan-1-amine,20390,DTXSID4041521,NCCCN1CCOCC1,InChI=1S/C7H16N2O/c8-2-1-3-9-4-6-10-7-5-9/h1-8H2,UIKUBYKUYUSRSM-UHFFFAOYSA-N,?,220.0,101326
101328,123-02-4,123-02-4,CCCCCCCCCCCCCc1ccccc1,1-PHENYLTRIDECANE,1-Phenyltridecane,tridecylbenzene,20392,DTXSID7040784,CCCCCCCCCCCCCc1ccccc1,"InChI=1S/C19H32/c1-2-3-4-5-6-7-8-9-10-11-13-16-19-17-14-12-15-18-19/h12,14-15,17-18H,2-11,13,16H2,1H3",MCVUKOYZUCWLQQ-UHFFFAOYSA-N,?,346.0,101328
101329,123-04-6,NOCAS_861758,CCCCC(CCl)CC,3-(CHLOROMETHYL)HEPTANE,,,20393,DTXSID40861758,CCCCC(CCl)CC,"InChI=1S/C8H17Cl/c1-3-5-6-8(4-2)7-9/h8H,3-7H2,1-2H3",WLVCBAMXYMWGLJ-UHFFFAOYSA-N,?,172.0,101329
101330,123-05-7,123-05-7,CCCCC(CC)C=O,2-ETHYLHEXANAL,2-Ethylhexanal,2-ethylhexanal,20394,DTXSID9025291,CCCCC(CC)C=O,"InChI=1S/C8H16O/c1-3-5-6-8(4-2)7-9/h7-8H,3-6H2,1-2H3",LGYNIFWIKSEESD-UHFFFAOYSA-N,?,163.0,101330
101332,123-08-0,123-08-0,Oc1ccc(C=O)cc1,4-HYDROXYBENZALDEHYDE,p-Hydroxybenzaldehyde,4-HYDROXYBENZALDEHYDE,20396,DTXSID8059552,Oc1ccc(C=O)cc1,"InChI=1S/C7H6O2/c8-5-6-1-3-7(9)4-2-6/h1-5,9H",RGHHSNMVTDWUBI-UHFFFAOYSA-N,?,310.0,101332
101333,123-11-5,123-11-5,COc1ccc(C=O)cc1,P-ANISALDEHYDE,4-Methoxybenzaldehyde,4-methoxybenzaldehyde,20397,DTXSID2026997,COc1ccc(C=O)cc1,"InChI=1S/C8H8O2/c1-10-8-4-2-7(6-9)3-5-8/h2-6H,1H3",ZRSNZINYAWTAHE-UHFFFAOYSA-N,?,248.0,101333
101334,123-15-9,123-15-9,CCCC(C)C=O,2-METHYLPENTALDEHYDE,2-Methylpentanal,2-methylpentanal,20398,DTXSID9021978,CCCC(C)C=O,"InChI=1S/C6H12O/c1-3-4-6(2)5-7/h5-6H,3-4H2,1-2H3",FTZILAQGHINQQR-UHFFFAOYSA-N,?,117.0,101334
101336,123-19-3,123-19-3,CCCC(=O)CCC,DI(N-PROPYL) KETONE,4-Heptanone,heptan-4-one,20400,DTXSID6047650,CCCC(=O)CCC,"InChI=1S/C7H14O/c1-3-5-7(8)6-4-2/h3-6H2,1-2H3",HCFAJYNVAYBARA-UHFFFAOYSA-N,?,144.0,101336
101337,123-25-1,123-25-1,CCOC(=O)CCC(=O)OCC,DIETHYL SUCCINATE,Diethyl butanedioate,diethyl butanedioate,20401,DTXSID2038732,CCOC(=O)CCC(=O)OCC,"InChI=1S/C8H14O4/c1-3-11-7(9)5-6-8(10)12-4-2/h3-6H2,1-2H3",DKMROQRQHGEIOW-UHFFFAOYSA-N,?,217.7,101337
101338,123-29-5,123-29-5,CCCCCCCCC(=O)OCC,ETHYL NONANOATE,Ethyl nonanoate,ethyl nonanoate,20402,DTXSID1047651,CCCCCCCCC(=O)OCC,"InChI=1S/C11H22O2/c1-3-5-6-7-8-9-10-11(12)13-4-2/h3-10H2,1-2H3",BYEVBITUADOIGY-UHFFFAOYSA-N,?,227.0,101338
101340,123-31-9,123-31-9,Oc1ccc(O)cc1,HYDROQUINONE,Hydroquinone,"benzene-1,4-diol",20404,DTXSID7020716,Oc1ccc(O)cc1,"InChI=1S/C6H6O2/c7-5-1-2-6(8)4-3-5/h1-4,7-8H",QIGBRXMKCJKVMJ-UHFFFAOYSA-N,?,287.0,101340
101341,123-32-0,123-32-0,Cc1c[n]c(C)c[n]1,"2,5-DIMETHYLPYRAZINE","2,5-Dimethylpyrazine","2,5-dimethylpyrazine",20405,DTXSID6047652,Cc1c[n]c(C)c[n]1,"InChI=1S/C6H8N2/c1-5-3-8-6(2)4-7-5/h3-4H,1-2H3",LCZUOKDVTBMCMX-UHFFFAOYSA-N,?,155.0,101341
101342,123-35-3,123-35-3,CC(C)=CCCC(=C)C=C,"3-METHYLENE-7-METHYL-1,6-OCTADIENE  (MYRCENE)",Myrcene,"7-methyl-3-methylideneocta-1,6-diene",20406,DTXSID6025692,CC(C)=CCCC(=C)C=C,"InChI=1S/C10H16/c1-5-10(4)8-6-7-9(2)3/h5,7H,1,4,6,8H2,2-3H3",UAHWPYUMFXYFJY-UHFFFAOYSA-N,?,167.0,101342
101345,123-42-2,123-42-2,CC(=O)CC(C)(C)O,4-HYDROXY-4-METHYL-2-PENTANONE,Diacetone alcohol,4-hydroxy-4-methylpentan-2-one,20408,DTXSID6024917,CC(=O)CC(C)(C)O,"InChI=1S/C6H12O2/c1-5(7)4-6(2,3)8/h8H,4H2,1-3H3",SWXVUIWOUIDPGS-UHFFFAOYSA-N,?,167.9,101345
101346,123-51-3,123-51-3,CC(C)CCO,ISOPENTANOL,Isopentyl alcohol,3-methylbutan-1-ol,20409,DTXSID3025469,CC(C)CCO,"InChI=1S/C5H12O/c1-5(2)3-4-6/h5-6H,3-4H2,1-2H3",PHTQWCKDNZKARW-UHFFFAOYSA-N,?,131.1,101346
101347,123-54-6,123-54-6,CC(=O)CC(C)=O,"2,4-PENTANEDIONE","2,4-Pentanedione","pentane-2,4-dione",20410,DTXSID4021979,CC(=O)CC(C)=O,"InChI=1S/C5H8O2/c1-4(6)3-5(2)7/h3H2,1-2H3",YRKCREAYFQTBPV-UHFFFAOYSA-N,?,138.0,101347
101349,123-62-6,123-62-6,CCC(=O)OC(=O)CC,PROPIONIC ANHYDRIDE,Propanoic anhydride,propanoic anhydride,20412,DTXSID1027007,CCC(=O)OC(=O)CC,"InChI=1S/C6H10O3/c1-3-5(7)9-6(8)4-2/h3-4H2,1-2H3",WYVAMUWZEOHJOQ-UHFFFAOYSA-N,?,170.0,101349
101350,123-63-7,123-63-7,CC1OC(C)OC(C)O1,PARALDEHYDE,Paraldehyde,"2,4,6-trimethyl-1,3,5-trioxane",20413,DTXSID9023419,CC1OC(C)OC(C)O1,"InChI=1S/C6H12O3/c1-4-7-5(2)9-6(3)8-4/h4-6H,1-3H3",SQYNKIJPMDEDEG-UHFFFAOYSA-N,?,124.3,101350
101351,123-66-0,123-66-0,CCCCCC(=O)OCC,ETHYL HEXANOATE,Ethyl hexanoate,ethyl hexanoate,20414,DTXSID3021980,CCCCCC(=O)OCC,"InChI=1S/C8H16O2/c1-3-5-6-7-8(9)10-4-2/h3-7H2,1-2H3",SHZIWNPUGXLXDT-UHFFFAOYSA-N,?,167.0,101351
101353,123-72-8,123-72-8,CCCC=O,BUTYRALDEHYDE,Butyraldehyde,butanal,20416,DTXSID8021513,CCCC=O,"InChI=1S/C4H8O/c1-2-3-4-5/h4H,2-3H2,1H3",ZTQSAGDEMFDKMZ-UHFFFAOYSA-N,?,74.8,101353