ChemID,source_casrn,CAS,SMILES,NAME,preferred_name,iupac,MPID,dsstox_substance_id,Canonical_QSARr,InChI_Code_QSARr,InChI Key_QSARr,Salt_Solvent,Salt_Solvent_ID,MP,ID
103049,350-90-3,NOCAS_870508,OC(=O)/C(/F)=C/c1ccccc1,"Cinnamic acid, alpha-fluoro-",,,30206,DTXSID00870508,OC(=O)C(F)=Cc1ccccc1,"InChI=1S/C9H7FO2/c10-8(9(11)12)6-7-4-2-1-3-5-7/h1-6H,(H,11,12)/b8-6-",QONCEXMULRJPPY-VURMDHGXSA-N,?,,157.5,103049
103053,351-83-7,351-83-7,CC(=O)Nc1ccc(F)cc1,4-FLUOROACETANILIDE,4-Fluoroacetanilide,N-(4-FLUOROPHENYL)ACETAMIDE,30209,DTXSID40188598,CC(=O)Nc1ccc(F)cc1,"InChI=1S/C8H8FNO/c1-6(11)10-8-4-2-7(9)3-5-8/h2-5H,1H3,(H,10,11)",JHEFOJNPLXSWNZ-UHFFFAOYSA-N,?,,154.0,103053
103057,352-70-5,352-70-5,Cc1cc(F)ccc1,M-FLUOROTOLUENE,m-Fluorotoluene,1-Fluoro-3-methylbenzene,30213,DTXSID2059855,Cc1cc(F)ccc1,"InChI=1S/C7H7F/c1-6-3-2-4-7(8)5-6/h2-5H,1H3",BTQZKHUEUDPRST-UHFFFAOYSA-N,?,,-87.0,103057
103061,353-50-4,353-50-4,O=C(F)F,CARBONIC DIFLUORIDE,Carbonic difluoride,CARBONYL DIFLUORIDE,30217,DTXSID7059858,O=C(F)F,InChI=1S/CF2O/c2-1(3)4,IYRWEQXVUNLMAY-UHFFFAOYSA-N,?,,-111.2,103061
103065,353-82-2,NOCAS_870509,N#CC(F)(Cl)Cl,"ACETONITRILE, DICHLOROFLUORO-",,,30221,DTXSID60870509,N#CC(F)(Cl)Cl,"InChI=1S/C2Cl2FN/c3-2(4,5)1-6",IUHXUTRMGQCBPC-UHFFFAOYSA-N,?,,-110.0,103065
103069,354-25-6,354-25-6,FC(F)C(F)(F)Cl,"ETHANE, 1-CHLORO-1,1,2,2-TETRAFLUORO-","1-chloro-1,1,2,2-tetrafluoroethane","1-chloro-1,1,2,2-tetrafluoroethane",30225,DTXSID1042023,FC(F)C(F)(F)Cl,"InChI=1S/C2HClF4/c3-2(6,7)1(4)5/h1H",JQZFYIGAYWLRCC-UHFFFAOYSA-N,?,,-117.0,103069
103077,355-04-4,355-04-4,FC(C(F)(F)C(F)(F)C(F)(F)F)(C(F)(F)F)C(F)(F)F,Undecafluoro-4-trifluoromethyl-pentane,Perfluoroisohexane,"1,1,1,2,2,3,3,4,5,5,5-Undecafluoro-4-(trifluoromethyl)pentane",30232,DTXSID40188992,FC(C(F)(F)C(F)(F)C(F)(F)F)(C(F)(F)F)C(F)(F)F,"InChI=1S/C6F14/c7-1(4(12,13)14,5(15,16)17)2(8,9)3(10,11)6(18,19)20",ROVMKEZVKFJNBD-UHFFFAOYSA-N,?,,-119.0,103077
103081,355-43-1,355-43-1,FC(F)(F)C(F)(F)C(F)(F)C(F)(F)C(F)(F)C(F)(F)I,"Hexane, tridecafluoro-6-iodo-",Perfluorohexyl iodide,"1,1,1,2,2,3,3,4,4,5,5,6,6-tridecafluoro-6-iodohexane",30236,DTXSID7047566,FC(F)(F)C(F)(F)C(F)(F)C(F)(F)C(F)(F)C(F)(F)I,"InChI=1S/C6F13I/c7-1(8,3(11,12)5(15,16)17)2(9,10)4(13,14)6(18,19)20",BULLJMKUVKYZDJ-UHFFFAOYSA-N,?,,-46.0,103081
103085,356-24-1,356-24-1,COC(=O)C(F)(F)C(F)(F)C(F)(F)F,"Butanoic acid, heptafluoro-, methyl ester",Methyl heptafluorobutyrate,"methyl 2,2,3,3,4,4,4-heptafluorobutanoate",30240,DTXSID4059881,COC(=O)C(F)(F)C(F)(F)C(F)(F)F,"InChI=1S/C5H3F7O2/c1-14-2(13)3(6,7)4(8,9)5(10,11)12/h1H3",MRPUVAKBXDBGJQ-UHFFFAOYSA-N,?,,-86.0,103085
103090,358-52-1,358-52-1,C#CCC1(CCCCC1)OC(N)=O,Hexapropymate,Hexapropymate [INN:BAN:DCF],(1-prop-2-ynylcyclohexyl) carbamate,30244,DTXSID00189329,C#CCC1(CCCCC1)OC(N)=O,"InChI=1S/C10H15NO2/c1-2-6-10(13-9(11)12)7-4-3-5-8-10/h1H,3-8H2,(H2,11,12)",MIRHIEAGDGUXKL-UHFFFAOYSA-N,?,,99.0,103090
103094,359-29-5,359-29-5,FC(Cl)=C(Cl)Cl,CHLOROTRIFLUOROETHENE,Trichlorofluoroethylene,"1,1,2-trichloro-2-fluoroethene",30248,DTXSID60189461,FC(Cl)=C(Cl)Cl,InChI=1S/C2Cl3F/c3-1(4)2(5)6,LFMIQNJMJJKICW-UHFFFAOYSA-N,?,,-108.9,103094
103099,360-89-4,360-89-4,FC(F)(F)C(F)=C(F)C(F)(F)F,OCTAFLUORO-2-BUTENE,"2-Butene, 1,1,1,2,3,4,4,4-octafluoro-",,30253,DTXSID3059890,FC(F)(F)C(F)=C(F)C(F)(F)F,"InChI=1S/C4F8/c5-1(3(7,8)9)2(6)4(10,11)12/b2-1+",WSJULBMCKQTTIG-OWOJBTEDSA-N,?,,-129.0,103099
103103,363-72-4,363-72-4,Fc1c(F)c(F)cc(F)c1F,PENTAFLUOROBENZENE,Pentafluorobenzene,"1,2,3,4,5-Pentafluorobenzene",30257,DTXSID8059893,Fc1c(F)c(F)cc(F)c1F,InChI=1S/C6HF5/c7-2-1-3(8)5(10)6(11)4(2)9/h1H,WACNXHCZHTVBJM-UHFFFAOYSA-N,?,,-47.3,103103
103107,364-76-1,364-76-1,Nc1cc(c(F)cc1)[N+]([O-])=O,4-Fluoro-3-nitroaniline,4-Fluoro-3-nitroaniline,4-fluoro-3-nitroaniline,30261,DTXSID5052042,Nc1cc(c(F)cc1)[N+]([O-])=O,"InChI=1S/C6H5FN2O2/c7-5-2-1-4(8)3-6(5)9(10)11/h1-3H,8H2",LLIOADBCFIXIEU-UHFFFAOYSA-N,?,,97.5,103107
103111,366-29-0,366-29-0,CN(C)c1ccc(cc1)-c1ccc(cc1)N(C)C,"N,N,N',N'-TETRAMETHYLBENZIDINE","N,N,N',N'-Tetramethylbenzidine","N,N,N',N'-tetramethylbiphenyl-4,4'-diamine",30265,DTXSID0036845,CN(C)c1ccc(cc1)-c1ccc(cc1)N(C)C,"InChI=1S/C16H20N2/c1-17(2)15-9-5-13(6-10-15)14-7-11-16(12-8-14)18(3)4/h5-12H,1-4H3",YRNWIFYIFSBPAU-UHFFFAOYSA-N,?,,194.0,103111
103115,367-25-9,367-25-9,Nc1ccc(F)cc1F,"2,4-DIFLUOROANILINE","2,4-Difluoroaniline","2,4-difluoroaniline",30269,DTXSID6025064,Nc1ccc(F)cc1F,"InChI=1S/C6H5F2N/c7-4-1-2-6(9)5(8)3-4/h1-3H,9H2",CEPCPXLLFXPZGW-UHFFFAOYSA-N,?,,-7.5,103115
103119,368-66-1,368-66-1,FC(F)(F)c1[n]c([n]c([n]1)C(F)(F)F)C(F)(F)F,"2,4,6-Tris-(trifluoromethyl)-1,3,5-triazine","2,4,6-Tris(trifluoromethyl)-sym-triazine","2,4,6-Tris(trifluoromethyl)-1,3,5-triazine",30273,DTXSID20190270,FC(F)(F)c1[n]c([n]c([n]1)C(F)(F)F)C(F)(F)F,"InChI=1S/C6F9N3/c7-4(8,9)1-16-2(5(10,11)12)18-3(17-1)6(13,14)15",LSGBKABSSSIRJF-UHFFFAOYSA-N,?,,-24.8,103119
103123,369-77-7,369-77-7,O=C(Nc1ccc(Cl)cc1)Nc1cc(c(Cl)cc1)C(F)(F)F,Cloflucarban,Cloflucarban,1-(4-chlorophenyl)-3-[4-chloro-3-(trifluoromethyl)phenyl]urea,30277,DTXSID0048684,O=C(Nc1ccc(Cl)cc1)Nc1cc(c(Cl)cc1)C(F)(F)F,"InChI=1S/C14H9Cl2F3N2O/c15-8-1-3-9(4-2-8)20-13(22)21-10-5-6-12(16)11(7-10)14(17,18)19/h1-7H,(H2,20,21,22)",ZFSXZJXLKAJIGS-UHFFFAOYSA-N,?,,214.5,103123
103127,371-62-0,371-62-0,OCCF,2-FLUOROETHANOL,2-Fluoroethanol,2-Fluoroethanol,30281,DTXSID0059902,OCCF,"InChI=1S/C2H5FO/c3-1-2-4/h4H,1-2H2",GGDYAKVUZMZKRV-UHFFFAOYSA-N,?,,-26.4,103127
103131,372-19-0,372-19-0,Nc1cc(F)ccc1,3-FLUOROANILINE,3-Fluoroaniline,3-Fluoroaniline,30285,DTXSID10190683,Nc1cc(F)ccc1,"InChI=1S/C6H6FN/c7-5-2-1-3-6(8)4-5/h1-4H,8H2",QZVQQUVWFIZUBQ-UHFFFAOYSA-N,?,,-5.0,103131
103135,372-75-8,13594-51-9,NC(=O)NCCC[C@@H](N)C(O)=O,"L-ORNITHINE, N5-(AMINOCARBONYL)-",D-Citrulline,C6H13N3O3,30289,DTXSID90348463,NC(=O)NCCCC(N)C(O)=O,"InChI=1S/C6H13N3O3/c7-4(5(10)11)2-1-3-9-6(8)12/h4H,1-3,7H2,(H,10,11)(H3,8,9,12)",RHGKLRLOHDJJDR-UHFFFAOYSA-N,?,,235.5,103135
103139,373-80-8,373-80-8,FC(F)(F)S(F)(F)(F)(F)F,"SULFUR, PENTAFLUORO(TRIFLUOROMETHYL)-, (OC-6-21)","Sulfur, pentafluoro(trifluoromethyl)-",,30293,DTXSID60190759,FC(F)(F)S(F)(F)(F)(F)F,"InChI=1S/CF8S/c2-1(3,4)10(5,6,7,8)9",QIYZKVMAFMDRTP-UHFFFAOYSA-N,?,,-87.0,103139
103143,375-34-8,375-34-8,FC(F)(F)C(Cl)(Cl)C(Cl)(Cl)C(F)(F)F,"Butane, 2,2,3,3-tetrachlorohexafluoro-","Butane, 2,2,3,3-tetrachlorohexafluoro-","2,2,3,3-Tetrachloro-1,1,1,4,4,4-hexafluorobutane",30297,DTXSID70190947,FC(F)(F)C(Cl)(Cl)C(Cl)(Cl)C(F)(F)F,"InChI=1S/C4Cl4F6/c5-1(6,3(9,10)11)2(7,8)4(12,13)14",BZBLUUDREZEDDJ-UHFFFAOYSA-N,?,,83.5,103143
103147,376-73-8,376-73-8,OC(=O)C(F)(F)C(F)(F)C(F)(F)C(O)=O,Perfluoroglutaric Acid,"Pentanedioic acid, hexafluoro-","2,2,3,3,4,4-hexafluoropentanedioic acid",30301,DTXSID8059926,OC(=O)C(F)(F)C(F)(F)C(F)(F)C(O)=O,"InChI=1S/C5H2F6O4/c6-3(7,1(12)13)5(10,11)4(8,9)2(14)15/h(H,12,13)(H,14,15)",CCUWGJDGLACFQT-UHFFFAOYSA-N,?,,80.0,103147
103152,381-98-6,381-98-6,C=C(C(O)=O)C(F)(F)F,2-(Trifluoromethyl)acrylic acid,2-(Trifluoromethyl)acrylic acid,C4H3F3O2,30306,DTXSID70343138,C=C(C(O)=O)C(F)(F)F,"InChI=1S/C4H3F3O2/c1-2(3(8)9)4(5,6)7/h1H2,(H,8,9)",VLSRKCIBHNJFHA-UHFFFAOYSA-N,?,,51.5,103152
103157,384-22-5,384-22-5,[O-][N+](=O)c1ccccc1C(F)(F)F,1-NO2 2-CF3 BENZENE,1-Nitro-2-(trifluoromethyl)benzene,1-nitro-2-(trifluoromethyl)benzene,30310,DTXSID4025793,[O-][N+](=O)c1ccccc1C(F)(F)F,"InChI=1S/C7H4F3NO2/c8-7(9,10)5-3-1-2-4-6(5)11(12)13/h1-4H",NDZJSUCUYPZXPR-UHFFFAOYSA-N,?,,32.5,103157
103161,390-64-7,390-64-7,C[C@@H](Cc1ccccc1)NCCC(c1ccccc1)c1ccccc1,Prenylamine,Prenylamine,"3,3-diphenyl-N-[(2S)-1-phenylpropan-2-yl]propan-1-amine",30314,DTXSID0048555,CC(Cc1ccccc1)NCCC(c1ccccc1)c1ccccc1,"InChI=1S/C24H27N/c1-20(19-21-11-5-2-6-12-21)25-18-17-24(22-13-7-3-8-14-22)23-15-9-4-10-16-23/h2-16,20,24-25H,17-19H2,1H3",IFFPICMESYHZPQ-UHFFFAOYSA-N,?,,36.5,103161
103165,393-75-9,393-75-9,[O-][N+](=O)c1cc(cc(c1Cl)[N+]([O-])=O)C(F)(F)F,"1,3-DINO2 2-CL 5-CF3 BENZENE","2-Chloro-1,3-dinitro-5-(trifluoromethyl)benzene","2-chloro-1,3-dinitro-5-(trifluoromethyl)benzene",30318,DTXSID8024781,[O-][N+](=O)c1cc(cc(c1Cl)[N+]([O-])=O)C(F)(F)F,"InChI=1S/C7H2ClF3N2O4/c8-6-4(12(14)15)1-3(7(9,10)11)2-5(6)13(16)17/h1-2H",HFHAVERNVFNSHL-UHFFFAOYSA-N,?,,57.0,103165
103169,399-31-5,399-31-5,CC(=O)Nc1ccccc1F,2-FLUOROACETANILIDE,N-(2-Fluorophenyl)acetamide,N-(2-Fluorophenyl)acetamide,30322,DTXSID40192938,CC(=O)Nc1ccccc1F,"InChI=1S/C8H8FNO/c1-6(11)10-8-5-3-2-4-7(8)9/h2-5H,1H3,(H,10,11)",AUZPZBPZWHEIDY-UHFFFAOYSA-N,?,,78.0,103169
103173,402-45-9,402-45-9,Oc1ccc(cc1)C(F)(F)F,P-TRIFLUOROMETHYLPHENOL,4-(Trifluoromethyl)phenol,4-(trifluoromethyl)phenol,30326,DTXSID2075392,Oc1ccc(cc1)C(F)(F)F,"InChI=1S/C7H5F3O/c8-7(9,10)5-1-3-6(11)4-2-5/h1-4,11H",BAYGVMXZJBFEMB-UHFFFAOYSA-N,?,,46.0,103173
103181,405-22-1,NOCAS_861919,NC(=O)N(CCO)/N=C/c1ccc(o1)[N+]([O-])=O,Nidroxyzone,,,30333,DTXSID80861919,NC(=O)N(CCO)N=Cc1ccc(o1)[N+]([O-])=O,"InChI=1S/C8H10N4O5/c9-8(14)11(3-4-13)10-5-6-1-2-7(17-6)12(15)16/h1-2,5,13H,3-4H2,(H2,9,14)/b10-5+",FJVAAURIDNIYAE-BJMVGYQFSA-N,?,,214.0,103181
103185,407-25-0,NOCAS_861920,O=C(OC(=O)C(F)(F)F)C(F)(F)F,TRIFLUOROACETIC ANHYDRIDE,,,30337,DTXSID90861920,O=C(OC(=O)C(F)(F)F)C(F)(F)F,"InChI=1S/C4F6O3/c5-3(6,7)1(11)13-2(12)4(8,9)10",QAEDZJGFFMLHHQ-UHFFFAOYSA-N,?,,-65.0,103185
103189,420-24-6,420-24-6,C[As](F)F,Difluoromethylarsine,"Arsine, difluoromethyl",difluoro-methylarsane,30341,DTXSID10194808,C[As](F)F,InChI=1S/CH3AsF2/c1-2(3)4/h1H3,ZXGHMKKZOQXXKB-UHFFFAOYSA-N,?,,-29.7,103189
103193,420-97-3,NOCAS_870530,CC(F)(Cl)CCl,"PROPANE, 1,2-DICHLORO-2-FLUORO-",,,30345,DTXSID70870530,CC(F)(Cl)CCl,"InChI=1S/C3H5Cl2F/c1-3(5,6)2-4/h2H2,1H3",OTKOPXLUNRNYCD-UHFFFAOYSA-N,?,,-91.7,103193
103197,421-20-5,421-20-5,COS(=O)(=O)F,Methyl Fluorosulfonate,"Fluorosulfuric acid, methyl ester",fluorosulfonyloxymethane,30349,DTXSID8073180,COS(=O)(=O)F,"InChI=1S/CH3FO3S/c1-5-6(2,3)4/h1H3",MBXNQZHITVCSLJ-UHFFFAOYSA-N,?,,-95.0,103197
103201,424-20-4,424-20-4,FC(F)(F)C(F)(F)C(F)(F)C(F)(F)C(F)(F)C(F)(F)OC(F)(F)C(F)(F)C(F)(F)C(F)(F)C(F)(F)C(F)(F)F,Perfluorohexyl ether,"1,1,1,2,2,3,3,4,4,5,5,6,6-tridecafluoro-6-[(tridecafluorohexyl)oxy]hexane",C12F26O,30353,DTXSID10291866,FC(F)(F)C(F)(F)C(F)(F)C(F)(F)C(F)(F)C(F)(F)OC(F)(F)C(F)(F)C(F)(F)C(F)(F)C(F)(F)C(F)(F)F,"InChI=1S/C12F26O/c13-1(14,5(21,22)9(29,30)31)3(17,18)7(25,26)11(35,36)39-12(37,38)8(27,28)4(19,20)2(15,16)6(23,24)10(32,33)34",SZSAPIBCGOJGHD-UHFFFAOYSA-N,?,,-90.0,103201
103206,430-66-0,430-66-0,FCC(F)F,"1,1,2-TRIFLUOROETHANE",HFC-143,"1,1,2-TRIFLUOROETHANE",30357,DTXSID8073182,FCC(F)F,"InChI=1S/C2H3F3/c3-1-2(4)5/h2H,1H2",WGZYQOSEVSXDNI-UHFFFAOYSA-N,?,,-84.0,103206
103215,432-60-0,432-60-0,C[C@]12CC[C@@H]3[C@H]4CCCC=C4CC[C@H]3[C@@H]1CC[C@@]2(O)CC=C,Allylestrenol,Allylestrenol,(17beta)-17-(prop-2-en-1-yl)estr-4-en-17-ol,30363,DTXSID9022574,CC12CCC3C4CCCC=C4CCC3C1CCC2(O)CC=C,"InChI=1S/C21H32O/c1-3-12-21(22)14-11-19-18-9-8-15-6-4-5-7-16(15)17(18)10-13-20(19,21)2/h3,6,16-19,22H,1,4-5,7-14H2,2H3",ATXHVCQZZJYMCF-UHFFFAOYSA-N,?,,80.0,103215
103219,434-07-1,434-07-1,C[C@]1(O)CC[C@H]2[C@@H]3CC[C@H]4CC(=O)/C(/C[C@]4(C)[C@H]3CC[C@]12C)=C\O,Oxymetholone,Oxymetholone,"(2Z,5alpha,17beta)-17-hydroxy-2-(hydroxymethylidene)-17-methylandrostan-3-one",30367,DTXSID5023794,CC1(O)CCC2C3CCC4CC(=O)C(CC4(C)C3CCC12C)=CO,"InChI=1S/C21H32O3/c1-19-11-13(12-22)18(23)10-14(19)4-5-15-16(19)6-8-20(2)17(15)7-9-21(20,3)24/h12,14-17,22,24H,4-11H2,1-3H3/b13-12-",ICMWWNHDUZJFDW-SEYXRHQNSA-N,?,,179.0,103219
103223,434-45-7,434-45-7,O=C(c1ccccc1)C(F)(F)F,TRIFLUOROACETOPHENONE,"Ethanone, 2,2,2-trifluoro-1-phenyl-","2,2,2-Trifluoro-1-phenylethanone",30371,DTXSID6059992,O=C(c1ccccc1)C(F)(F)F,"InChI=1S/C8H5F3O/c9-8(10,11)7(12)6-4-2-1-3-5-6/h1-5H",KZJRKRQSDZGHEC-UHFFFAOYSA-N,?,,-40.0,103223
103227,435-97-2,435-97-2,CCC(C1=C(O)c2ccccc2OC1=O)c1ccccc1,PHENPROCOUMON,Phenprocoumon,4-hydroxy-3-(1-phenylpropyl)-2H-chromen-2-one,30375,DTXSID5023459,CCC(C1=C(O)c2ccccc2OC1=O)c1ccccc1,"InChI=1S/C18H16O3/c1-2-13(12-8-4-3-5-9-12)16-17(19)14-10-6-7-11-15(14)21-18(16)20/h3-11,13,19H,2H2,1H3",DQDAYGNAKTZFIW-UHFFFAOYSA-N,?,,179.5,103227
103233,439-14-5,439-14-5,CN1C(=O)CN=C(c2cc(Cl)ccc12)c1ccccc1,DIAZEPAM,Diazepam,"7-chloro-1-methyl-5-phenyl-1,3-dihydro-2H-1,4-benzodiazepin-2-one",30380,DTXSID4020406,CN1C(=O)CN=C(c2cc(Cl)ccc12)c1ccccc1,"InChI=1S/C16H13ClN2O/c1-19-14-8-7-12(17)9-13(14)16(18-10-15(19)20)11-5-3-2-4-6-11/h2-9H,10H2,1H3",AAOVKJBEBIDNHE-UHFFFAOYSA-N,?,,132.0,103233
103238,442-16-0,442-16-0,CCOc1cc2c(cc1)[n]c1cc(N)ccc1c2N,"3,9-Acridinediamine, 7-ethoxy-, monohydrate",Ethacridine,"7-ethoxyacridine-3,9-diamine",30384,DTXSID2048402,CCOc1cc2c(cc1)[n]c1cc(N)ccc1c2N,"InChI=1S/C15H15N3O/c1-2-19-10-4-6-13-12(8-10)15(17)11-5-3-9(16)7-14(11)18-13/h3-8H,2,16H2,1H3,(H2,17,18)",CIKWKGFPFXJVGW-UHFFFAOYSA-N,?,,226.0,103238
103243,444-30-4,444-30-4,Oc1ccccc1C(F)(F)F,O-TRIFLUOROMETHYLPHENOL,2-(Trifluoromethyl)phenol,2-(Trifluoromethyl)phenol,30388,DTXSID0074849,Oc1ccccc1C(F)(F)F,"InChI=1S/C7H5F3O/c8-7(9,10)5-3-1-2-4-6(5)11/h1-4,11H",ZOQOPXVJANRGJZ-UHFFFAOYSA-N,?,,45.5,103243
103247,446-17-3,446-17-3,OC(=O)c1cc(F)c(F)cc1F,"2,4,5-Trifluorobenzoic Acid","2,4,5-Trifluorobenzoic acid",C7H3F3O2,30392,DTXSID20334571,OC(=O)c1cc(F)c(F)cc1F,"InChI=1S/C7H3F3O2/c8-4-2-6(10)5(9)1-3(4)7(11)12/h1-2H,(H,11,12)",AKAMNXFLKYKFOJ-UHFFFAOYSA-N,?,,100.0,103247
103251,446-52-6,446-52-6,O=Cc1ccccc1F,2-FLUOR-BENZALDEHYD,2-Fluorobenzaldehyde,2-fluorobenzaldehyde,30396,DTXSID8022030,O=Cc1ccccc1F,InChI=1S/C7H5FO/c8-7-4-2-1-3-6(7)5-9/h1-5H,ZWDVQMVZZYIAHO-UHFFFAOYSA-N,?,,-44.5,103251
103255,447-53-0,447-53-0,C1CC=Cc2ccccc21,"1,2-DIHYDRONAPHTHALENE","1,2-Dihydronaphthalene",C10H10,30400,DTXSID30858713,C1CC=Cc2ccccc21,"InChI=1S/C10H10/c1-2-6-10-8-4-3-7-9(10)5-1/h1-3,5-7H,4,8H2",KEIFWROAQVVDBN-UHFFFAOYSA-N,?,,-8.0,103255
103259,451-40-1,451-40-1,O=C(Cc1ccccc1)c1ccccc1,2-PHENYLACETOPHENONE,"1,2-Diphenylethanone","1,2-diphenylethanone",30404,DTXSID6044430,O=C(Cc1ccccc1)c1ccccc1,"InChI=1S/C14H12O/c15-14(13-9-5-2-6-10-13)11-12-7-3-1-4-8-12/h1-10H,11H2",OTKCEEWUXHVZQI-UHFFFAOYSA-N,?,,60.0,103259
103263,451-82-1,451-82-1,OC(=O)Cc1ccccc1F,O-FLUOROPHENYLACETIC ACID,"Benzeneacetic acid, 2-fluoro-",2-(2-fluorophenyl)acetic acid,30408,DTXSID1060007,OC(=O)Cc1ccccc1F,"InChI=1S/C8H7FO2/c9-7-4-2-1-3-6(7)5-8(10)11/h1-4H,5H2,(H,10,11)",RPTRFSADOICSSK-UHFFFAOYSA-N,?,,63.0,103263
103268,452-86-8,452-86-8,Cc1cc(O)c(O)cc1,"1,2-BENZENEDIOL, 4-METHYL-",4-Methylcatechol,"4-methylbenzene-1,2-diol",30412,DTXSID5020861,Cc1cc(O)c(O)cc1,"InChI=1S/C7H8O2/c1-5-2-3-6(8)7(9)4-5/h2-4,8-9H,1H3",ZBCATMYQYDCTIZ-UHFFFAOYSA-N,?,,65.0,103268
103272,455-14-1,455-14-1,Nc1ccc(cc1)C(F)(F)F,P-TRIFLUOROMETHYLANILINE,4-(Trifluoromethyl)aniline,4-(Trifluoromethyl)aniline,30416,DTXSID5060013,Nc1ccc(cc1)C(F)(F)F,"InChI=1S/C7H6F3N/c8-7(9,10)5-1-3-6(11)4-2-5/h1-4H,11H2",ODGIMMLDVSWADK-UHFFFAOYSA-N,?,,38.0,103272
103276,455-38-9,455-38-9,OC(=O)c1cccc(F)c1,M-FLUOROBENZOIC ACID,"Benzoic acid, 3-fluoro-",3-Fluorobenzoic acid,30420,DTXSID4060020,OC(=O)c1cccc(F)c1,"InChI=1S/C7H5FO2/c8-6-3-1-2-5(4-6)7(9)10/h1-4H,(H,9,10)",MXNBDFWNYRNIBH-UHFFFAOYSA-N,?,,124.0,103276
103280,456-49-5,456-49-5,COc1cccc(F)c1,M-FLUOROANISOLE,3-Fluoroanisole,1-FLUORO-3-METHOXYBENZENE,30424,DTXSID90196567,COc1cccc(F)c1,"InChI=1S/C7H7FO/c1-9-7-4-2-3-6(8)5-7/h2-5H,1H3",MFJNOXOAIFNSBX-UHFFFAOYSA-N,?,,-35.0,103280
103284,458-35-5,458-35-5,COc1cc(C=CCO)ccc1O,CONIFERYL ALCOHOL,Coniferyl alcohol,C10H12O3,30428,DTXSID9060029,COc1cc(C=CCO)ccc1O,"InChI=1S/C10H12O3/c1-13-10-7-8(3-2-6-11)4-5-9(10)12/h2-5,7,11-12H,6H2,1H3/b3-2+",JMFRWRFFLBVWSI-NSCUHMNNSA-N,?,,74.0,103284
103288,,459-23-4,ON=Cc1ccc(F)cc1,P-FLUOROBENZALDOXIME,,,30431,,O=NCc1ccc(F)cc1,"InChI=1S/C7H6FNO/c8-7-3-1-6(2-4-7)5-9-10/h1-4H,5H2",LYUNTQMDKDIIKH-UHFFFAOYSA-N,?,,83.5,103288
103292,459-60-9,459-60-9,COc1ccc(F)cc1,P-FLUOROANISOLE,p-Fluoroanisole,1-Fluoro-4-methoxybenzene,30435,DTXSID3060033,COc1ccc(F)cc1,"InChI=1S/C7H7FO/c1-9-7-4-2-6(8)3-5-7/h2-5H,1H3",VIPWUFMFHBIKQI-UHFFFAOYSA-N,?,,-45.0,103292
103296,460-19-5,460-19-5,N#CC#N,CYANOGEN,Cyanogen,ethanedinitrilato,30439,DTXSID1023992,N#CC#N,InChI=1S/C2N2/c3-1-2-4,JMANVNJQNLATNU-UHFFFAOYSA-N,?,,-27.9,103296
103300,461-72-3,461-72-3,O=C1NCC(=O)N1,HYDANTOIN,Hydantoin,"imidazolidine-2,4-dione",30443,DTXSID1052111,O=C1NCC(=O)N1,"InChI=1S/C3H4N2O2/c6-2-1-4-3(7)5-2/h1H2,(H2,4,5,6,7)",WJRBRSLFGCUECM-UHFFFAOYSA-N,?,,220.0,103300
103304,462-06-6,462-06-6,Fc1ccccc1,FLUOROBENZENE,Fluorobenzene,fluorobenzene,30447,DTXSID4025329,Fc1ccccc1,InChI=1S/C6H5F/c7-6-4-2-1-3-5-6/h1-5H,PYLWMHQQBFSUBP-UHFFFAOYSA-N,?,,-42.2,103304
103308,462-95-3,462-95-3,CCOCOCC,DIETHOXYMETHANE,Diethoxymethane,(ethoxymethoxy)ethane,30451,DTXSID6052112,CCOCOCC,"InChI=1S/C5H12O2/c1-3-6-5-7-4-2/h3-5H2,1-2H3",KLKFAASOGCDTDT-UHFFFAOYSA-N,?,,-66.5,103308
103312,463-49-0,463-49-0,C=C=C,"1,2-PROPADIENE","1,2-Propadiene",propadiene,30455,DTXSID1029178,C=C=C,InChI=1S/C3H4/c1-3-2/h1-2H2,IYABWNGZIDDRAK-UHFFFAOYSA-N,?,,-136.2,103312
103316,463-82-1,463-82-1,CC(C)(C)C,"2,2-DIMETHYLPROPANE","Propane, 2,2-dimethyl-","2,2-dimethylpropane",30459,DTXSID6029179,CC(C)(C)C,"InChI=1S/C5H12/c1-5(2,3)4/h1-4H3",CRSOQBOWXPBRES-UHFFFAOYSA-N,?,,-16.4,103316
103320,464-15-3,464-15-3,CC1(C)C2CCC1(C)CC2,"BICYCLO[2.2.1]HEPTANE, 1,7,7-TRIMETHYL-",Camphane,"1,7,7-Trimethylbicyclo[2.2.1]heptane",30463,DTXSID60196832,CC1(C)C2CCC1(C)CC2,"InChI=1S/C10H18/c1-9(2)8-4-6-10(9,3)7-5-8/h8H,4-7H2,1-3H3",BEWYHVAWEKZDPP-UHFFFAOYSA-N,?,,158.5,103320
103328,464-85-7,464-85-7,C=C[C@H]1C[N@@]2CC[C@H]1C[C@H]2C12Nc3ccccc3C1(O)CCO2,QUINAMINE,,,30471,DTXSID10878434,C=CC1CN2CCC1CC2C12Nc3ccccc3C1(O)CCO2,"InChI=1S/C19H24N2O2/c1-2-13-12-21-9-7-14(13)11-17(21)19-18(22,8-10-23-19)15-5-3-4-6-16(15)20-19/h2-6,13-14,17,20,22H,1,7-12H2",ALNKTVLUDWIWIH-UHFFFAOYSA-N,?,,185.5,103328
103332,465-22-5,465-22-5,C[C@]12CC[C@H]3[C@@H](CCC4=C[C@@H](O)CC[C@@]43C)[C@@]1(O)CC[C@@H]2C1=COC(=O)C=C1,Scillarenin,,,30475,DTXSID60878661,CC12CCC3C(CCC4=CC(O)CCC43C)C1(O)CCC2C1=COC(=O)C=C1,"InChI=1S/C24H32O4/c1-22-10-7-17(25)13-16(22)4-5-20-19(22)8-11-23(2)18(9-12-24(20,23)27)15-3-6-21(26)28-14-15/h3,6,13-14,17-20,25,27H,4-5,7-12H2,1-2H3",OVUOVMIMOCJILI-UHFFFAOYSA-N,?,,235.0,103332
103337,466-49-9,466-49-9,CC(=O)N1[C@@H]2CC[C@]3(CCCN4CC[C@@]2([C@@H]34)c2cccc(OC)c12)CC,Aspidospermine,Aspidospermine,,30479,DTXSID70196883,CC(=O)N1C2CCC3(CCCN4CCC2(C34)c2cccc(OC)c12)CC,"InChI=1S/C22H30N2O2/c1-4-21-10-6-13-23-14-12-22(20(21)23)16-7-5-8-17(26-3)19(16)24(15(2)25)18(22)9-11-21/h5,7-8,18,20H,4,6,9-14H2,1-3H3",ARQOGCYMPUOVHK-UHFFFAOYSA-N,?,,208.0,103337
103342,467-14-1,467-14-1,COc1ccc2C[C@@H]3C4=CC[C@H](O)[C@@H]5Oc1c2[C@]45CCN3C,NEOPINE,Neopine,,30483,DTXSID80196910,COc1ccc2CC3C4=CCC(O)C5Oc1c2C45CCN3C,"InChI=1S/C18H21NO3/c1-19-8-7-18-11-4-5-13(20)17(18)22-16-14(21-2)6-3-10(15(16)18)9-12(11)19/h3-4,6,12-13,17,20H,5,7-9H2,1-2H3",NNDKZTBFZTWKLA-UHFFFAOYSA-N,?,,127.5,103342
103346,467-98-1,467-98-1,CN1CC[C@]23CC(=O)C=C[C@H]2[C@H]1Cc1ccc(OC)c(O)c31,Thebainone,,,30487,DTXSID60878328,CN1CCC23CC(=O)C=CC2C1Cc1ccc(OC)c(O)c31,"InChI=1S/C18H21NO3/c1-19-8-7-18-10-12(20)4-5-13(18)14(19)9-11-3-6-15(22-2)17(21)16(11)18/h3-6,13-14,21H,7-10H2,1-2H3",SLJDAVMWFVYEFI-UHFFFAOYSA-N,?,,151.5,103346
103350,468-76-8,468-76-8,CC1(C)[C@@H](O)CC[C@@]2(C)[C@H]1CC(=O)[C@@H]1[C@@H]2CC/C(=C/C(=O)OCCN(C)C)/[C@@H]1C,Cassaine,,,30491,DTXSID00878665,CC1(C)C(O)CCC2(C)C1CC(=O)C1C2CCC(=CC(=O)OCCN(C)C)C1C,"InChI=1S/C24H39NO4/c1-15-16(13-21(28)29-12-11-25(5)6)7-8-17-22(15)18(26)14-19-23(2,3)20(27)9-10-24(17,19)4/h13,15,17,19-20,22,27H,7-12,14H2,1-6H3/b16-13+",GMHWATCMBXIANN-DTQAZKPQSA-N,?,,142.5,103350
103355,470-90-6,470-90-6,CCOP(=O)(OC(=CCl)c1ccc(Cl)cc1Cl)OCC,CHLORFENVINPHOS,Chlorfenvinphos,"2-chloro-1-(2,4-dichlorophenyl)ethenyl diethyl phosphate",30495,DTXSID7034250,CCOP(=O)(OC(=CCl)c1ccc(Cl)cc1Cl)OCC,"InChI=1S/C12H14Cl3O4P/c1-3-17-20(16,18-4-2)19-12(8-13)10-6-5-9(14)7-11(10)15/h5-8H,3-4H2,1-2H3/b12-8+",FSAVDKDHPDSCTO-XYOKQWHBSA-N,?,,-20.0,103355