ChemID,source_casrn,CAS,SMILES,NAME,preferred_name,iupac,MPID,dsstox_substance_id,Canonical_QSARr,InChI_Code_QSARr,InChI Key_QSARr,Salt_Solvent,Salt_Solvent_ID,MP,ID
101170,92-88-6,92-88-6,Oc1ccc(cc1)-c1ccc(O)cc1,"4,4'-BIPHENOL","4,4'-Biphenyldiol","biphenyl-4,4'-diol",28470,DTXSID1029120,Oc1ccc(cc1)-c1ccc(O)cc1,"InChI=1S/C12H10O2/c13-11-5-1-9(2-6-11)10-3-7-12(14)8-4-10/h1-8,13-14H",VCCBEIPGXKNHFW-UHFFFAOYSA-N,?,,283.0,101170
101174,92-94-4,92-94-4,c1cc(ccc1-c1ccccc1)-c1ccccc1,"1,1':4',1''-TERPHENYL","1,1':4',1''-Terphenyl","1,1':4',1''-terphenyl",28474,DTXSID6029121,c1cc(ccc1-c1ccccc1)-c1ccccc1,InChI=1S/C18H14/c1-3-7-15(8-4-1)17-11-13-18(14-12-17)16-9-5-2-6-10-16/h1-14H,XJKSTNDFUHDPQJ-UHFFFAOYSA-N,?,,210.1,101174
101178,93-02-7,93-02-7,COc1ccc(cc1C=O)OC,"Benzaldehyde, 2,5-dimethoxy-","2,5-Dimethoxybenzaldehyde","2,5-dimethoxybenzaldehyde",28478,DTXSID5052620,COc1ccc(cc1C=O)OC,"InChI=1S/C9H10O3/c1-11-8-3-4-9(12-2)7(5-8)6-10/h3-6H,1-2H3",AFUKNJHPZAVHGQ-UHFFFAOYSA-N,?,,52.0,101178
101182,93-09-4,93-09-4,OC(=O)c1cc2ccccc2cc1,2-NAPHTHOIC ACID,2-Naphthalenecarboxylic acid,NAPHTHALENE-2-CARBOXYLIC ACID,28481,DTXSID1059078,OC(=O)c1cc2ccccc2cc1,"InChI=1S/C11H8O2/c12-11(13)10-6-5-8-3-1-2-4-9(8)7-10/h1-7H,(H,12,13)",UOBYKYZJUGYBDK-UHFFFAOYSA-N,?,,185.5,101182
101187,93-16-3,93-16-3,CC=Cc1cc(OC)c(cc1)OC,"Benzene, 1,2-dimethoxy-4-(1-propenyl)-",4-Prop-1-enylveratrole,"1,2-dimethoxy-4-(prop-1-en-1-yl)benzene",28485,DTXSID0052621,CC=Cc1cc(OC)c(cc1)OC,"InChI=1S/C11H14O2/c1-4-5-9-6-7-10(12-2)11(8-9)13-3/h4-8H,1-3H3/b5-4+",NNWHUJCUHAELCL-SNAWJCMRSA-N,?,,18.0,101187
101191,93-25-4,93-25-4,COc1ccccc1CC(O)=O,"Benzeneacetic acid, 2-methoxy-","Benzeneacetic acid, 2-methoxy-",2-(2-methoxyphenyl)acetic acid,28489,DTXSID0059083,COc1ccccc1CC(O)=O,"InChI=1S/C9H10O3/c1-12-8-5-3-2-4-7(8)6-9(10)11/h2-5H,6H2,1H3,(H,10,11)",IVEWTCACRDEAOB-UHFFFAOYSA-N,?,,124.0,101191
101195,93-37-8,93-37-8,Cc1cc2[n]c(C)ccc2cc1,"Quinoline, 2,7-dimethyl-","Quinoline, 2,7-dimethyl-","2,7-Dimethylquinoline",28493,DTXSID0059085,Cc1cc2[n]c(C)ccc2cc1,"InChI=1S/C11H11N/c1-8-3-5-10-6-4-9(2)12-11(10)7-8/h3-7H,1-2H3",QXKPLNCZSFACPU-UHFFFAOYSA-N,?,,61.0,101195
101200,93-46-9,93-46-9,c1c2ccccc2ccc1Nc1ccc(cc1)Nc1cc2ccccc2cc1,Diafen NN,"N,N'-Di-2-naphthyl-p-phenylenediamine","N,N'-di(naphthalen-2-yl)benzene-1,4-diamine",28497,DTXSID3020918,c1c2ccccc2ccc1Nc1ccc(cc1)Nc1cc2ccccc2cc1,"InChI=1S/C26H20N2/c1-3-7-21-17-25(11-9-19(21)5-1)27-23-13-15-24(16-14-23)28-26-12-10-20-6-2-4-8-22(20)18-26/h1-18,27-28H",VETPHHXZEJAYOB-UHFFFAOYSA-N,?,,235.0,101200
101204,93-52-7,93-52-7,BrCC(Br)c1ccccc1,"(1,2-DIBROMOETHYL)BENZENE","1,2-dibromo(phenyl)ethane","(1,2-dibromoethyl)benzene",28501,DTXSID7052735,BrCC(Br)c1ccccc1,"InChI=1S/C8H8Br2/c9-6-8(10)7-4-2-1-3-5-7/h1-5,8H,6H2",SHKKTLSDGJRCTR-UHFFFAOYSA-N,?,,75.0,101204
101208,93-59-4,93-59-4,OOC(=O)c1ccccc1,Perbenzoic acid,Peroxybenzoic acid,benzenecarboperoxoic acid,28505,DTXSID10239223,OOC(=O)c1ccccc1,"InChI=1S/C7H6O3/c8-7(10-9)6-4-2-1-3-5-6/h1-5,9H",XCRBXWCUXJNEFX-UHFFFAOYSA-N,?,,42.0,101208
101212,93-65-2|7085-19-0|16484-77-8,93-65-2|16484-77-8,Cc1cc(Cl)ccc1OC(C)C(O)=O,"MECOPROP, MCPP, Mecoprop-P",Mecoprop,2-(4-chloro-2-methylphenoxy)propanoic acid,28509|34658|34991,DTXSID9024194|DTXSID3032670,Cc1cc(Cl)ccc1OC(C)C(O)=O,"InChI=1S/C10H11ClO3/c1-6-5-8(11)3-4-9(6)14-7(2)10(12)13/h3-5,7H,1-2H3,(H,12,13)",WNTGYJSOUMFZEP-UHFFFAOYSA-N,?,,94.5,101212
101216,93-72-1,93-72-1,CC(Oc1cc(Cl)c(Cl)cc1Cl)C(O)=O,SILVEX,"2-(2,4,5-Trichlorophenoxy)propionic acid","2-(2,4,5-trichlorophenoxy)propanoic acid",28513,DTXSID0021387,CC(Oc1cc(Cl)c(Cl)cc1Cl)C(O)=O,"InChI=1S/C9H7Cl3O3/c1-4(9(13)14)15-8-3-6(11)5(10)2-7(8)12/h2-4H,1H3,(H,13,14)",ZLSWBLPERHFHIS-UHFFFAOYSA-N,?,,181.6,101216
101220,93-79-8,93-79-8,CCCCOC(=O)COc1cc(Cl)c(Cl)cc1Cl,"2,4,5-T, N-BUTYL ESTER","Butyl (2,4,5-trichlorophenoxy)acetate","butyl (2,4,5-trichlorophenoxy)acetate",28517,DTXSID7026073,CCCCOC(=O)COc1cc(Cl)c(Cl)cc1Cl,"InChI=1S/C12H13Cl3O3/c1-2-3-4-17-12(16)7-18-11-6-9(14)8(13)5-10(11)15/h5-6H,2-4,7H2,1H3",FNEXNZUHBCBQTI-UHFFFAOYSA-N,?,,28.5,101220
101225,93-98-1,93-98-1,O=C(Nc1ccccc1)c1ccccc1,BENZANILIDE,Benzanilide,N-Phenylbenzamide,28521,DTXSID9059096,O=C(Nc1ccccc1)c1ccccc1,"InChI=1S/C13H11NO/c15-13(11-7-3-1-4-8-11)14-12-9-5-2-6-10-12/h1-10H,(H,14,15)",ZVSKZLHKADLHSD-UHFFFAOYSA-N,?,,163.0,101225
101229,94-09-7,94-09-7,CCOC(=O)c1ccc(N)cc1,"P-AMINOBENZOIC ACID, ETHYL ESTER",Benzocaine,ethyl 4-aminobenzoate,28524,DTXSID8021804,CCOC(=O)c1ccc(N)cc1,"InChI=1S/C9H11NO2/c1-2-12-9(11)7-3-5-8(10)6-4-7/h3-6H,2,10H2,1H3",BLFLLBZGZJTVJG-UHFFFAOYSA-N,?,,92.0,101229
101233,94-14-4,94-14-4,CC(C)COC(=O)c1ccc(N)cc1,"Benzoic acid, 4-amino-, 2-methylpropyl ester",Isocaine,2-methylpropyl 4-aminobenzoate,28528,DTXSID9023170,CC(C)COC(=O)c1ccc(N)cc1,"InChI=1S/C11H15NO2/c1-8(2)7-14-11(13)9-3-5-10(12)6-4-9/h3-6,8H,7,12H2,1-2H3",PUYOAVGNCWPANW-UHFFFAOYSA-N,?,,64.5,101233
101238,94-26-8,94-26-8,CCCCOC(=O)c1ccc(O)cc1,P-HYDROXY BUTYL BENZOATE,Butylparaben,butyl 4-hydroxybenzoate,28532,DTXSID3020209,CCCCOC(=O)c1ccc(O)cc1,"InChI=1S/C11H14O3/c1-2-3-8-14-11(13)9-4-6-10(12)7-5-9/h4-7,12H,2-3,8H2,1H3",QFOHBWFCKVYLES-UHFFFAOYSA-N,?,,68.5,101238
101242,94-36-0,94-36-0,O=C(OOC(=O)c1ccccc1)c1ccccc1,BENZOYL PEROXIDE,Benzoyl peroxide,diphenylperoxyanhydride,28536,DTXSID6024591,O=C(OOC(=O)c1ccccc1)c1ccccc1,InChI=1S/C14H10O4/c15-13(11-7-3-1-4-8-11)17-18-14(16)12-9-5-2-6-10-12/h1-10H,OMPJBNCRMGITSC-UHFFFAOYSA-N,?,,105.0,101242
101246,94-52-0,94-52-0,[O-][N+](=O)c1cc2[n]c[nH]c2cc1,"1H-BENZIMIDAZOLE, 5-NITRO-",6-Nitrobenzimidazole,5-nitro-1H-benzimidazole,28540,DTXSID8020965,[O-][N+](=O)c1cc2[n]c[nH]c2cc1,"InChI=1S/C7H5N3O2/c11-10(12)5-1-2-6-7(3-5)9-4-8-6/h1-4H,(H,8,9)",XPAZGLFMMUODDK-UHFFFAOYSA-N,?,,208.0,101246
101250,94-67-7,94-67-7,Oc1ccccc1C=NO,"Benzaldehyde, 2-hydroxy-, oxime",Salicylaldehyde oxime,2-[(hydroxyimino)methyl]phenol,28544,DTXSID9052638,Oc1ccccc1CN=O,"InChI=1S/C7H7NO2/c9-7-4-2-1-3-6(7)5-8-10/h1-4,9H,5H2",PUNVNOQWQQPNES-UHFFFAOYSA-N,?,,57.0,101250
101254,94-75-7,94-75-7,OC(=O)COc1ccc(Cl)cc1Cl,"2,4-DICHLOROPHENOXYACETIC ACID","2,4-Dichlorophenoxyacetic acid","(2,4-dichlorophenoxy)acetic acid",28548,DTXSID0020442,OC(=O)COc1ccc(Cl)cc1Cl,"InChI=1S/C8H6Cl2O3/c9-5-1-2-7(6(10)3-5)13-4-8(11)12/h1-3H,4H2,(H,11,12)",OVSKIKFHRZPJSS-UHFFFAOYSA-N,?,,140.5,101254
101258,94-83-7,94-83-7,O=C(OCCOc1ccc(Cl)cc1Cl)c1ccccc1,"2,4-DEB","2-(2,4-Dichlorophenoxy)ethyl benzoate","2-(2,4-dichlorophenoxy)ethyl benzoate",28552,DTXSID8041296,O=C(OCCOc1ccc(Cl)cc1Cl)c1ccccc1,"InChI=1S/C15H12Cl2O3/c16-12-6-7-14(13(17)10-12)19-8-9-20-15(18)11-4-2-1-3-5-11/h1-7,10H,8-9H2",LGURYBCSJPXHTF-UHFFFAOYSA-N,?,,66.0,101258
101262,94-99-5,94-99-5,ClCc1ccc(Cl)cc1Cl,"2,4-DICHLOROBENZYLCHLORIDE","2,4-Dichloro-1-(chloromethyl)benzene","2,4-dichloro-1-(chloromethyl)benzene",28556,DTXSID9045005,ClCc1ccc(Cl)cc1Cl,"InChI=1S/C7H5Cl3/c8-4-5-1-2-6(9)3-7(5)10/h1-3H,4H2",IRSVDHPYXFLLDS-UHFFFAOYSA-N,?,,-2.6,101262
101267,95-11-4,NOCAS_870431,N#CC1CC2CC1C=C2,5-NORBORNENE-2-CARBONITRILE,,,28560,DTXSID90870431,N#CC1CC2CC1C=C2,"InChI=1S/C8H9N/c9-5-8-4-6-1-2-7(8)3-6/h1-2,6-8H,3-4H2",BMAXQTDMWYDIJX-UHFFFAOYSA-N,?,,13.0,101267
101271,95-16-9,95-16-9,c1[n]c2ccccc2[s]1,BENZOTHIAZOLE,Benzothiazole,"1,3-benzothiazole",28564,DTXSID7024586,c1[n]c2ccccc2[s]1,InChI=1S/C7H5NS/c1-2-4-7-6(3-1)8-5-9-7/h1-5H,IOJUPLGTWVMSFF-UHFFFAOYSA-N,?,,2.0,101271
101275,95-25-0,95-25-0,O=C1Nc2cc(Cl)ccc2O1,"2(3H)-Benzoxazolone, 5-chloro-",Chlorzoxazone,"5-chloro-1,3-benzoxazol-2(3H)-one",28568,DTXSID9022813,O=C1Nc2cc(Cl)ccc2O1,"InChI=1S/C7H4ClNO2/c8-4-1-2-6-5(3-4)9-7(10)11-6/h1-3H,(H,9,10)",TZFWDZFKRBELIQ-UHFFFAOYSA-N,?,,191.5,101275
101279,95-43-2,533-49-3,OC[C@H](O)[C@H](O)C=O,D-Threose,L-Erythrose,"(2S,3S)-2,3,4-trihydroxybutanal",28572,DTXSID30201447,OCC(O)C(O)C=O,"InChI=1S/C4H8O4/c5-1-3(7)4(8)2-6/h1,3-4,6-8H,2H2",YTBSYETUWUMLBZ-UHFFFAOYSA-N,?,,129.0,101279
101283,95-48-7,95-48-7,Cc1ccccc1O,O-CRESOL,o-Cresol,2-methylphenol,28576,DTXSID8021808,Cc1ccccc1O,"InChI=1S/C7H8O/c1-6-4-2-3-5-7(6)8/h2-5,8H,1H3",QWVGKYWNOKOFNN-UHFFFAOYSA-N,?,,29.8,101283
101287,95-52-3,95-52-3,Cc1ccccc1F,O-FLUOROTOLUENE,2-Fluorotoluene,1-fluoro-2-methylbenzene,28580,DTXSID7021811,Cc1ccccc1F,"InChI=1S/C7H7F/c1-6-4-2-3-5-7(6)8/h2-5H,1H3",MMZYCBHLNZVROM-UHFFFAOYSA-N,?,,-62.0,101287
101291,95-56-7,95-56-7,Oc1ccccc1Br,O-BROMOPHENOL,2-Bromophenol,2-bromophenol,28584,DTXSID8052641,Oc1ccccc1Br,"InChI=1S/C6H5BrO/c7-5-3-1-2-4-6(5)8/h1-4,8H",VADKRMSMGWJZCF-UHFFFAOYSA-N,?,,5.6,101291
101295,95-64-7,95-64-7,Cc1cc(N)ccc1C,"3,4-XYLIDINE","3,4-Dimethylaniline","3,4-dimethylaniline",28588,DTXSID3026308,Cc1cc(N)ccc1C,"InChI=1S/C8H11N/c1-6-3-4-8(9)5-7(6)2/h3-5H,9H2,1-2H3",DOLQYFPDPKPQSS-UHFFFAOYSA-N,?,,51.0,101295
101299,95-69-2,95-69-2,Cc1cc(Cl)ccc1N,2-METHYL-4-CHLOROANILINE,4-Chloro-2-methylaniline,4-chloro-2-methylaniline,28592,DTXSID1041508,Cc1cc(Cl)ccc1N,"InChI=1S/C7H8ClN/c1-5-4-6(8)2-3-7(5)9/h2-4H,9H2,1H3",CXNVOWPRHWWCQR-UHFFFAOYSA-N,?,,30.3,101299
101303,95-73-8,95-73-8,Cc1ccc(Cl)cc1Cl,"2,4-DICHLOROTOLUENE","2,4-Dichlorotoluene","2,4-dichloro-1-methylbenzene",28596,DTXSID5040702,Cc1ccc(Cl)cc1Cl,"InChI=1S/C7H6Cl2/c1-5-2-3-6(8)4-7(5)9/h2-4H,1H3",FUNUTBJJKQIVSY-UHFFFAOYSA-N,?,,-13.5,101303
101307,95-77-2,95-77-2,Oc1cc(Cl)c(Cl)cc1,"3,4-DICHLOROPHENOL","3,4-Dichlorophenol","3,4-dichlorophenol",28600,DTXSID7025005,Oc1cc(Cl)c(Cl)cc1,"InChI=1S/C6H4Cl2O/c7-5-2-1-4(9)3-6(5)8/h1-3,9H",WDNBURPWRNALGP-UHFFFAOYSA-N,?,,68.0,101307
101311,95-81-8,95-81-8,Cc1ccc(Cl)c(N)c1,2-CHLOR-5-METHYL-ANILINE,"Benzenamine, 2-chloro-5-methyl-",2-Chloro-5-methylaniline,28604,DTXSID0074554,Cc1ccc(Cl)c(N)c1,"InChI=1S/C7H8ClN/c1-5-2-3-6(8)7(9)4-5/h2-4H,9H2,1H3",HPSCXFOQUFPEPE-UHFFFAOYSA-N,?,,29.5,101311
101315,95-85-2,95-85-2,Nc1cc(Cl)ccc1O,"PHENOL, 2-AMINO-4-CHLORO-",2-Amino-4-chlorophenol,2-amino-4-chlorophenol,28608,DTXSID5024473,Nc1cc(Cl)ccc1O,"InChI=1S/C6H6ClNO/c7-4-1-2-6(9)5(8)3-4/h1-3,9H,8H2",SWFNPENEBHAHEB-UHFFFAOYSA-N,?,,140.0,101315
101319,95-93-2,95-93-2,Cc1cc(C)c(C)cc1C,"1,2,4,5-TETRAMETHYLBENZENE","1,2,4,5-Tetramethylbenzene","1,2,4,5-tetramethylbenzene",28612,DTXSID1029124,Cc1cc(C)c(C)cc1C,"InChI=1S/C10H14/c1-7-5-9(3)10(4)6-8(7)2/h5-6H,1-4H3",SQNZJJAZBFDUTD-UHFFFAOYSA-N,?,,79.3,101319
101323,95-99-8,95-99-8,OC(=O)CNC(=S)C(=S)NCC(O)=O,"Glycine, N,N'-(1,2-dithioxo-1,2-ethanediyl)bis-","Glycine, N,N'-(1,2-dithioxo-1,2-ethanediyl)bis-",2-[[2-(carboxymethylamino)-2-sulfanylideneethanethioyl]amino]acetic acid,28616,DTXSID4059126,OC(=O)CNC(=S)C(=S)NCC(O)=O,"InChI=1S/C6H8N2O4S2/c9-3(10)1-7-5(13)6(14)8-2-4(11)12/h1-2H2,(H,7,13)(H,8,14)(H,9,10)(H,11,12)",LJIPVCWBVLYNOV-UHFFFAOYSA-N,?,,220.5,101323
101327,96-09-3,96-09-3,C1OC1c1ccccc1,STYRENE OXIDE,Styrene oxide,2-phenyloxirane,28620,DTXSID2021286,C1OC1c1ccccc1,"InChI=1S/C8H8O/c1-2-4-7(5-3-1)8-6-9-8/h1-5,8H,6H2",AWMVMTVKBNGEAK-UHFFFAOYSA-N,?,,-35.6,101327
101332,96-17-3,96-17-3,CCC(C)C=O,2-METHYLBUTANAL,2-Methylbutanal,2-methylbutanal,28624,DTXSID2021818,CCC(C)C=O,"InChI=1S/C5H10O/c1-3-5(2)4-6/h4-5H,3H2,1-2H3",BYGQBDHUGHBGMD-UHFFFAOYSA-N,?,,91.0,101332
101336,96-23-1,96-23-1,OC(CCl)CCl,"1,3-DICHLORO-2-PROPANOL","1,3-Dichloro-2-propanol","1,3-dichloropropan-2-ol",28628,DTXSID6025010,OC(CCl)CCl,"InChI=1S/C3H6Cl2O/c4-1-3(6)2-5/h3,6H,1-2H2",DEWLEGDTCGBNGU-UHFFFAOYSA-N,?,,-4.0,101336
101341,96-34-4,96-34-4,COC(=O)CCl,METHYL CHLOROACETATE,Methyl chloroacetate,methyl chloroacetate,28632,DTXSID9041576,COC(=O)CCl,"InChI=1S/C3H5ClO2/c1-6-3(5)2-4/h2H2,1H3",QABLOFMHHSOFRJ-UHFFFAOYSA-N,?,,-32.1,101341
101345,96-45-7,96-45-7,S=C1NCCN1,ETHYLENETHIOUREA,Ethylene thiourea,imidazolidine-2-thione,28636,DTXSID5020601,S=C1NCCN1,"InChI=1S/C3H6N2S/c6-3-4-1-2-5-3/h1-2H2,(H2,4,5,6)",PDQAZBWRQCGBEV-UHFFFAOYSA-N,?,,203.0,101345
101349,96-53-7,96-53-7,S=C1NCCS1,2-Mercaptothiazoline,2-Thiazolidinethione,"1,3-Thiazolidine-2-thione",28640,DTXSID3059133,S=C1NCCS1,"InChI=1S/C3H5NS2/c5-3-4-1-2-6-3/h1-2H2,(H,4,5)",WGJCBBASTRWVJL-UHFFFAOYSA-N,?,,106.0,101349
101353,96-69-5,96-69-5,CC(C)(C)c1cc(Sc2cc(c(O)cc2C)C(C)(C)C)c(C)cc1O,"4,4'-Thiobis(6-tert-butyl-3-cresol)","4,4'-Thiobis(6-tert-butyl-m-cresol)","4,4'-sulfanediylbis(2-tert-butyl-5-methylphenol)",28644,DTXSID4021341,CC(C)(C)c1cc(Sc2cc(c(O)cc2C)C(C)(C)C)c(C)cc1O,"InChI=1S/C22H30O2S/c1-13-9-17(23)15(21(3,4)5)11-19(13)25-20-12-16(22(6,7)8)18(24)10-14(20)2/h9-12,23-24H,1-8H3",HXIQYSLFEXIOAV-UHFFFAOYSA-N,?,,162.0,101353
101357,96-84-4,96-84-4,CCC(Cc1c(I)cc(I)c(O)c1I)C(O)=O,Iophenoxic Acid,Iophenoxic acid,"2-(3-hydroxy-2,4,6-triiodobenzyl)butanoic acid",28648,DTXSID1046265,CCC(Cc1c(I)cc(I)c(O)c1I)C(O)=O,"InChI=1S/C11H11I3O3/c1-2-5(11(16)17)3-6-7(12)4-8(13)10(15)9(6)14/h4-5,15H,2-3H2,1H3,(H,16,17)",GOIQOQCNFWYSTQ-UHFFFAOYSA-N,?,,147.0,101357
101361,96-97-9,96-97-9,[O-][N+](=O)c1ccc(O)c(c1)C(O)=O,5-NITROSALICYLIC ACID,"Benzoic acid, 2-hydroxy-5-nitro-",2-Hydroxy-5-nitrobenzoic acid,28652,DTXSID2059142,[O-][N+](=O)c1ccc(O)c(c1)C(O)=O,"InChI=1S/C7H5NO5/c9-6-2-1-4(8(12)13)3-5(6)7(10)11/h1-3,9H,(H,10,11)",PPDRLQLKHRZIJC-UHFFFAOYSA-N,?,,229.5,101361
101365,97-05-2,97-05-2,OC(=O)c1cc(ccc1O)S(O)(=O)=O,"Benzoic acid, 2-hydroxy-5-sulfo-","Benzoic acid, 2-hydroxy-5-sulfo-",2-Hydroxy-5-sulfobenzoic acid,28656,DTXSID7059145,OC(=O)c1cc(ccc1O)S(O)(=O)=O,"InChI=1S/C7H6O6S/c8-6-2-1-4(14(11,12)13)3-5(6)7(9)10/h1-3,8H,(H,9,10)(H,11,12,13)",YCPXWRQRBFJBPZ-UHFFFAOYSA-N,?,,120.0,101365
101369,97-24-5,97-24-5,Oc1ccc(Cl)cc1Sc1cc(Cl)ccc1O,DI(2-HYDROXY-5-CHLORPHENYL)THIOETHER,Fenticlor,"2,2'-sulfanediylbis(4-chlorophenol)",28660,DTXSID4026137,Oc1ccc(Cl)cc1Sc1cc(Cl)ccc1O,"InChI=1S/C12H8Cl2O2S/c13-7-1-3-9(15)11(5-7)17-12-6-8(14)2-4-10(12)16/h1-6,15-16H",ANUSOIHIIPAHJV-UHFFFAOYSA-N,?,,174.0,101369
101373,97-39-2,97-39-2,Cc1ccccc1NC(=N)Nc1ccccc1C,"Guanidine, N,N'-bis(2-methylphenyl)-","1,3-Bis(2-methylphenyl)guanidine","1,3-bis(2-methylphenyl)guanidine",28664,DTXSID2026606,Cc1ccccc1NC(=N)Nc1ccccc1C,"InChI=1S/C15H17N3/c1-11-7-3-5-9-13(11)17-15(16)18-14-10-6-4-8-12(14)2/h3-10H,1-2H3,(H3,16,17,18)",OPNUROKCUBTKLF-UHFFFAOYSA-N,?,,179.0,101373
101377,97-54-1|5932-68-3,97-54-1|5932-68-3,CC=Cc1cc(OC)c(O)cc1,"2-METHOXY-4-(1-PROPENYL)PHENOL, PHENOL, 2-METHOXY-4-(1-PROPENYL)-, (E)-",Isoeugenol,2-methoxy-4-(prop-1-en-1-yl)phenol,28668|34490,DTXSID7022413|DTXSID50872350,CC=Cc1cc(OC)c(O)cc1,"InChI=1S/C10H12O2/c1-3-4-8-5-6-9(11)10(7-8)12-2/h3-7,11H,1-2H3/b4-3+",BJIOGJUNALELMI-ONEGZZNKSA-N,?,,11.75,101377
101382,97-72-3,97-72-3,CC(C)C(=O)OC(=O)C(C)C,"Propanoic acid, 2-methyl-, anhydride",Isobutyric anhydride,2-methylpropanoic anhydride,28672,DTXSID7026609,CC(C)C(=O)OC(=O)C(C)C,"InChI=1S/C8H14O3/c1-5(2)7(9)11-8(10)6(3)4/h5-6H,1-4H3",LSACYLWPPQLVSM-UHFFFAOYSA-N,?,,-53.5,101382
101386,97-85-8,97-85-8,CC(C)C(=O)OCC(C)C,ISOBUTYL ISOBUTYRATE,Isobutyl isobutyrate,2-methylpropyl 2-methylpropanoate,28676,DTXSID6026612,CC(C)C(=O)OCC(C)C,"InChI=1S/C8H16O2/c1-6(2)5-10-8(9)7(3)4/h6-7H,5H2,1-4H3",RXGUIWHIADMCFC-UHFFFAOYSA-N,?,,-80.7,101386
101391,98-01-1,98-01-1,O=Cc1ccco1,FUFURAL,Furfural,furan-2-carbaldehyde,28680,DTXSID1020647,O=Cc1ccco1,InChI=1S/C5H4O2/c6-4-5-2-1-3-7-5/h1-4H,HYBBIBNJHNGZAN-UHFFFAOYSA-N,?,,-38.1,101391
101395,98-08-8,98-08-8,FC(F)(F)c1ccccc1,BENZOTRIFLUORIDE,Benzotrifluoride,(trifluoromethyl)benzene,28684,DTXSID2024589,FC(F)(F)c1ccccc1,"InChI=1S/C7H5F3/c8-7(9,10)6-4-2-1-3-5-6/h1-5H",GETTZEONDQJALK-UHFFFAOYSA-N,?,,-29.1,101395
101399,98-14-6,98-14-6,Oc1ccc(cc1)[As](O)(O)=O,"Arsonic acid, (4-hydroxyphenyl)- (9CI)",Oxarsanilic acid,(4-HYDROXYPHENYL)ARSONIC ACID,28688,DTXSID00243359,Oc1ccc(cc1)[As](O)(O)=O,"InChI=1S/C6H7AsO4/c8-6-3-1-5(2-4-6)7(9,10)11/h1-4,8H,(H2,9,10,11)",RSRFURJMCNJVOW-UHFFFAOYSA-N,?,,172.0,101399
101403,98-19-1,98-19-1,CC(C)(C)c1cc(C)cc(C)c1,"Benzene, 1-(1,1-dimethylethyl)-3,5-dimethyl-",5-Tert-butyl-m-xylene,"1-tert-butyl-3,5-dimethylbenzene",28692,DTXSID2052659,CC(C)(C)c1cc(C)cc(C)c1,"InChI=1S/C12H18/c1-9-6-10(2)8-11(7-9)12(3,4)5/h6-8H,1-5H3",FZSPYHREEHYLCB-UHFFFAOYSA-N,?,,-18.0,101403
101412,98-54-4,98-54-4,CC(C)(C)c1ccc(O)cc1,P-T-BUTYLYPHENOL,4-tert-Butylphenol,4-tert-butylphenol,28699,DTXSID1020221,CC(C)(C)c1ccc(O)cc1,"InChI=1S/C10H14O/c1-10(2,3)8-4-6-9(11)7-5-8/h4-7,11H,1-3H3",QHPQWRBYOIRBIT-UHFFFAOYSA-N,?,,98.0,101412
101416,98-59-9,98-59-9,Cc1ccc(cc1)S(=O)(=O)Cl,P-TOLUENESULFONYL CHLORIDE,p-Toluenesulfonyl chloride,4-methylbenzenesulfonyl chloride,28703,DTXSID1052660,Cc1ccc(cc1)S(=O)(=O)Cl,"InChI=1S/C7H7ClO2S/c1-6-2-4-7(5-3-6)11(8,9)10/h2-5H,1H3",YYROPELSRYBVMQ-UHFFFAOYSA-N,?,,71.0,101416
101421,98-66-8,98-66-8,OS(=O)(=O)c1ccc(Cl)cc1,"Benzenesulfonic acid, 4-chloro-",4-Chlorobenzenesulfonic acid,4-chlorobenzenesulfonic acid,28707,DTXSID7044473,OS(=O)(=O)c1ccc(Cl)cc1,"InChI=1S/C6H5ClO3S/c7-5-1-3-6(4-2-5)11(8,9)10/h1-4H,(H,8,9,10)",RJWBTWIBUIGANW-UHFFFAOYSA-N,?,,67.0,101421
101425,98-80-6,98-80-6,OB(O)c1ccccc1,"BORONIC ACID, PHENYL-","Boronic acid, phenyl-",Phenylboronic acid,28711,DTXSID9059179,OB(O)c1ccccc1,"InChI=1S/C6H7BO2/c8-7(9)6-4-2-1-3-5-6/h1-5,8-9H",HXITXNWTGFUOAU-UHFFFAOYSA-N,?,,219.0,101425
101429,98-85-1|1517-69-7,98-85-1|1517-69-7,CC(O)c1ccccc1,"ALPHA-METHYLBENZYL ALCOHOL, 1-PHENYLETHANOL",alpha-Methylbenzyl alcohol,1-phenylethanol,28715|33052,DTXSID1020859|DTXSID00164853,CC(O)c1ccccc1,"InChI=1S/C8H10O/c1-7(9)8-5-3-2-4-6-8/h2-7,9H,1H3",WAPNOHKVXSQRPX-UHFFFAOYSA-N,?,,15.0,101429
101433,98-89-5,98-89-5,OC(=O)C1CCCCC1,CYCLOHEXANECARBOXYLIC ACID,Cyclohexanecarboxylic acid,Cyclohexanecarboxylic acid,28719,DTXSID8059180,OC(=O)C1CCCCC1,"InChI=1S/C7H12O2/c8-7(9)6-4-2-1-3-5-6/h6H,1-5H2,(H,8,9)",NZNMSOFKMUBTKW-UHFFFAOYSA-N,?,,31.5,101433
101437,98-96-4,98-96-4,NC(=O)c1c[n]cc[n]1,2-PYRAZINECARBOXAMIDE,Pyrazinamide,pyrazine-2-carboxamide,28723,DTXSID9021215,NC(=O)c1c[n]cc[n]1,"InChI=1S/C5H5N3O/c6-5(9)4-3-7-1-2-8-4/h1-3H,(H2,6,9)",IPEHBUMCGVEMRF-UHFFFAOYSA-N,?,,192.0,101437
101441,99-04-7,99-04-7,Cc1cc(ccc1)C(O)=O,M-TOLUIC ACID,3-Methylbenzoic acid,3-methylbenzoic acid,28727,DTXSID1021617,Cc1cc(ccc1)C(O)=O,"InChI=1S/C8H8O2/c1-6-3-2-4-7(5-6)8(9)10/h2-5H,1H3,(H,9,10)",GPSDUZXPYCFOSQ-UHFFFAOYSA-N,?,,108.7,101441
101445,99-08-1,99-08-1,Cc1cc(ccc1)[N+]([O-])=O,3-NITROTOLUENE,3-Nitrotoluene,1-methyl-3-nitrobenzene,28731,DTXSID5021831,Cc1cc(ccc1)[N+]([O-])=O,"InChI=1S/C7H7NO2/c1-6-3-2-4-7(5-6)8(9)10/h2-5H,1H3",QZYHIOPPLUPUJF-UHFFFAOYSA-N,?,,15.5,101445
101449,99-17-2,99-17-2,OCc1ccccc1O[C@@H]1O[C@H](COC(=O)c2ccccc2)[C@@H](O)[C@H](O)[C@H]1O,POPULIN,,,28735,DTXSID90878492,OCc1ccccc1OC1OC(COC(=O)c2ccccc2)C(O)C(O)C1O,"InChI=1S/C20H22O8/c21-10-13-8-4-5-9-14(13)27-20-18(24)17(23)16(22)15(28-20)11-26-19(25)12-6-2-1-3-7-12/h1-9,15-18,20-24H,10-11H2",HHSKNLJWHGXWPK-UHFFFAOYSA-N,?,,180.0,101449
101453,99-30-9,99-30-9,Nc1c(Cl)cc(cc1Cl)[N+]([O-])=O,"2,6-DICHLORO-4-NITROANILINE",Dicloran,"2,6-dichloro-4-nitroaniline",28738,DTXSID2020426,Nc1c(Cl)cc(cc1Cl)[N+]([O-])=O,"InChI=1S/C6H4Cl2N2O2/c7-4-1-3(10(11)12)2-5(8)6(4)9/h1-2H,9H2",BIXZHMJUSMUDOQ-UHFFFAOYSA-N,?,,191.0,101453
101457,99-34-3,99-34-3,[O-][N+](=O)c1cc(cc(c1)[N+]([O-])=O)C(O)=O,"3,5-DINITROBENZOIC ACID","3,5-Dinitrobenzoic acid","3,5-Dinitrobenzoic acid",28741,DTXSID7059195,[O-][N+](=O)c1cc(cc(c1)[N+]([O-])=O)C(O)=O,"InChI=1S/C7H4N2O6/c10-7(11)4-1-5(8(12)13)3-6(2-4)9(14)15/h1-3H,(H,10,11)",VYWYYJYRVSBHJQ-UHFFFAOYSA-N,?,,205.0,101457
101461,99-53-6,99-53-6,Cc1cc(ccc1O)[N+]([O-])=O,2-METHYL-4-NITROPHENOL,"Phenol, 2-methyl-4-nitro-",2-Methyl-4-nitrophenol,28745,DTXSID4073889,Cc1cc(ccc1O)[N+]([O-])=O,"InChI=1S/C7H7NO3/c1-5-4-6(8(10)11)2-3-7(5)9/h2-4,9H,1H3",KDQPMQNHVQVVMR-UHFFFAOYSA-N,?,,96.0,101461
101465,99-57-0,99-57-0,Nc1cc(ccc1O)[N+]([O-])=O,2-AMINO-4-NITROPHENOL,2-Amino-4-nitrophenol,2-amino-4-nitrophenol,28749,DTXSID6020062,Nc1cc(ccc1O)[N+]([O-])=O,"InChI=1S/C6H6N2O3/c7-5-3-4(8(10)11)1-2-6(5)9/h1-3,9H,7H2",VLZVIIYRNMWPSN-UHFFFAOYSA-N,?,,144.0,101465
101469,99-62-7,99-62-7,CC(C)c1cc(ccc1)C(C)C,"1,3-DIISOPROPYLBENZENE","1,3-Diisopropylbenzene","1,3-di(propan-2-yl)benzene",28753,DTXSID8026640,CC(C)c1cc(ccc1)C(C)C,"InChI=1S/C12H18/c1-9(2)11-6-5-7-12(8-11)10(3)4/h5-10H,1-4H3",UNEATYXSUBPPKP-UHFFFAOYSA-N,?,,-63.1,101469