ChemID,source_casrn,CAS,SMILES,NAME,preferred_name,iupac,MPID,dsstox_substance_id,Canonical_QSARr,InChI_Code_QSARr,InChI Key_QSARr,Salt_Solvent,Salt_Solvent_ID,MP,ID
102424,124-17-4,124-17-4,CCCCOCCOCCOC(C)=O,DIETHYLENE GLYCOL MONOBUTYL ETHER ACETATE,2-(2-Butoxyethoxy)ethyl acetate,2-(2-butoxyethoxy)ethyl acetate,29662,DTXSID9027021,CCCCOCCOCCOC(C)=O,"InChI=1S/C10H20O4/c1-3-4-5-12-6-7-13-8-9-14-10(2)11/h3-9H2,1-2H3",VXQBJTKSVGFQOL-UHFFFAOYSA-N,?,,-32.0,102424
102429,124-26-5,124-26-5,CCCCCCCCCCCCCCCCCC(N)=O,Octadecanamide,Octadecanamide,octadecanamide,29666,DTXSID9027025,CCCCCCCCCCCCCCCCCC(N)=O,"InChI=1S/C18H37NO/c1-2-3-4-5-6-7-8-9-10-11-12-13-14-15-16-17-18(19)20/h2-17H2,1H3,(H2,19,20)",LYRFLYHAGKPMFH-UHFFFAOYSA-N,?,,109.0,102429
102433,124-40-3,124-40-3,CNC,DIMETHYLAMINE,Dimethylamine,N-methylmethanamine,29670,DTXSID5024057,CNC,"InChI=1S/C2H7N/c1-3-2/h3H,1-2H3",ROSDSFDQCJNGOL-UHFFFAOYSA-N,?,,-92.2,102433
102438,124-68-5,124-68-5,CC(C)(N)CO,2-AMINO-2-METHYL-1-PROPANOL,2-Amino-2-methylpropan-1-ol,2-amino-2-methylpropan-1-ol,29674,DTXSID8027032,CC(C)(N)CO,"InChI=1S/C4H11NO/c1-4(2,5)3-6/h6H,3,5H2,1-2H3",CBTVGIZVANVGBH-UHFFFAOYSA-N,?,,25.5,102438
102443,124-83-4,560-09-8,CC1(C)[C@@H](CC[C@]1(C)C(O)=O)C(O)=O,CAMPHORIC ACID,"Camphoric acid, (-)-","(1S,3R)-1,2,2-trimethylcyclopentane-1,3-dicarboxylic acid",29678,DTXSID80204569,CC1(C)C(CCC1(C)C(O)=O)C(O)=O,"InChI=1S/C10H16O4/c1-9(2)6(7(11)12)4-5-10(9,3)8(13)14/h6H,4-5H2,1-3H3,(H,11,12)(H,13,14)",LSPHULWDVZXLIL-UHFFFAOYSA-N,?,,189.1,102443
102451,125-33-7,125-33-7,CCC1(C(=O)NCNC1=O)c1ccccc1,PRIMIDONE,Primidone,"5-ethyl-5-phenyldihydropyrimidine-4,6(1H,5H)-dione",29682,DTXSID7023510,CCC1(C(=O)NCNC1=O)c1ccccc1,"InChI=1S/C12H14N2O2/c1-2-12(9-6-4-3-5-7-9)10(15)13-8-14-11(12)16/h3-7H,2,8H2,1H3,(H,13,15)(H,14,16)",DQMZLTXERSFNPB-UHFFFAOYSA-N,?,,281.5,102451
102456,125-60-0,125-60-0,[Br-].C[N+]1(CCC(C(N)=O)(c2ccccc2)c2ccccc2)CCCCC1,Fenpiverinium bromide,Fenpiverinium bromide,"1-(4-amino-4-oxo-3,3-diphenylbutyl)-1-methylpiperidinium bromide",29686,DTXSID0046484,C[N+]1(CCC(C(N)=O)(c2ccccc2)c2ccccc2)CCCCC1,"InChI=1S/C22H28N2O/c1-24(16-9-4-10-17-24)18-15-22(21(23)25,19-11-5-2-6-12-19)20-13-7-3-8-14-20/h2-3,5-8,11-14H,4,9-10,15-18H2,1H3,(H-,23,25)/p+1",QDIYJDPBMZUZEH-UHFFFAOYSA-O,[Br-],1731.0,178.0,102456
102461,126-00-1,126-00-1,CC(CCC(O)=O)(c1ccc(O)cc1)c1ccc(O)cc1,Diphenolin acid,Diphenolic acid,"4,4-bis(4-hydroxyphenyl)pentanoic acid",29690,DTXSID0022436,CC(CCC(O)=O)(c1ccc(O)cc1)c1ccc(O)cc1,"InChI=1S/C17H18O4/c1-17(11-10-16(20)21,12-2-6-14(18)7-3-12)13-4-8-15(19)9-5-13/h2-9,18-19H,10-11H2,1H3,(H,20,21)",VKOUCJUTMGHNOR-UHFFFAOYSA-N,?,,171.5,102461
102465,126-14-7,126-14-7,CC(=O)O[C@@H]1[C@@H](OC(C)=O)[C@@H](O[C@]2(COC(C)=O)O[C@H](COC(C)=O)[C@@H](OC(C)=O)[C@@H]2OC(C)=O)O[C@H](COC(C)=O)[C@H]1OC(C)=O,Sucrose octaacetate,Sucrose octaacetate,"1,3,4,6-tetra-O-acetyl-beta-D-fructofuranosyl 2,3,4,6-tetra-O-acetyl-alpha-D-glucopyranoside",29694,DTXSID3042423,CC(=O)OC1C(OC(C)=O)C(OC2(COC(C)=O)OC(COC(C)=O)C(OC(C)=O)C2OC(C)=O)OC(COC(C)=O)C1OC(C)=O,"InChI=1S/C28H38O19/c1-12(29)37-9-20-22(40-15(4)32)24(42-17(6)34)25(43-18(7)35)27(45-20)47-28(11-39-14(3)31)26(44-19(8)36)23(41-16(5)33)21(46-28)10-38-13(2)30/h20-27H,9-11H2,1-8H3",ZIJKGAXBCRWEOL-UHFFFAOYSA-N,?,,86.5,102465
102472,126-30-7,126-30-7,CC(C)(CO)CO,"1,3-Propanediol, 2,2-dimethyl-","2,2-Dimethylpropane-1,3-diol","2,2-dimethylpropane-1,3-diol",29700,DTXSID8027036,CC(C)(CO)CO,"InChI=1S/C5H12O2/c1-5(2,3-6)4-7/h6-7H,3-4H2,1-2H3",SLCVBVWXLSEKPL-UHFFFAOYSA-N,?,,130.0,102472
102476,126-58-9,126-58-9,OCC(COCC(CO)(CO)CO)(CO)CO,Dipentaerythritol,Dipentaerythritol,"2,2'-(oxydimethanediyl)bis[2-(hydroxymethyl)propane-1,3-diol]",29704,DTXSID3027039,OCC(COCC(CO)(CO)CO)(CO)CO,"InChI=1S/C10H22O7/c11-1-9(2-12,3-13)7-17-8-10(4-14,5-15)6-16/h11-16H,1-8H2",TXBCBTDQIULDIA-UHFFFAOYSA-N,?,,221.0,102476
102480,126-98-7,126-98-7,CC(=C)C#N,METHACRYLONITRILE,Methacrylonitrile,2-methylprop-2-enenitrile,29708,DTXSID1024176,CC(=C)C#N,"InChI=1S/C4H5N/c1-4(2)3-5/h1H2,2H3",GYCMBHHDWRMZGG-UHFFFAOYSA-N,?,,-35.8,102480
102484,127-08-2,127-08-2,[K+].CC([O-])=O,Potassium acetate,Potassium acetate,potassium acetate,29712,DTXSID7027043,CC(O)=O,"InChI=1S/C2H4O2/c1-2(3)4/h1H3,(H,3,4)",QTBSBXVTEAMEQO-UHFFFAOYSA-N,[K+],198.0,292.0,102484
102488,127-19-5,127-19-5,CC(=O)N(C)C,"N,N'-DIMETHYLACETAMIDE","N,N-Dimethylacetamide","N,N-dimethylacetamide",29716,DTXSID5020499,CC(=O)N(C)C,InChI=1S/C4H9NO/c1-4(6)5(2)3/h1-3H3,FXHOOIRPVKKKFG-UHFFFAOYSA-N,?,,-20.0,102488
102492,127-35-5,127-35-5,CC1C2Cc3ccc(O)cc3C1(C)CCN2CCc1ccccc1,Phenazocine,Phenazocine,C22H27NO,29720,DTXSID90860736,CC1C2Cc3ccc(O)cc3C1(C)CCN2CCc1ccccc1,"InChI=1S/C22H27NO/c1-16-21-14-18-8-9-19(24)15-20(18)22(16,2)11-13-23(21)12-10-17-6-4-3-5-7-17/h3-9,15-16,21,24H,10-14H2,1-2H3",ZQHYKVKNPWDQSL-UHFFFAOYSA-N,?,,181.0,102492
102496,127-66-2,127-66-2,CC(O)(C#C)c1ccccc1,"Benzenemethanol, .alpha.-ethynyl-.alpha.-methyl-",2-Phenyl-3-butyn-2-ol,2-phenylbut-3-yn-2-ol,29724,DTXSID7021990,CC(O)(C#C)c1ccccc1,"InChI=1S/C10H10O/c1-3-10(2,11)9-7-5-4-6-8-9/h1,4-8,11H,2H3",KSLSOBUAIFEGLT-UHFFFAOYSA-N,?,,52.3,102496
102500,127-77-5,127-77-5,Nc1ccc(cc1)S(=O)(=O)Nc1ccccc1,N1-PHENYLSULFANILIDE,Sulfabenz,4-amino-N-phenylbenzenesulfonamide,29727,DTXSID9046287,Nc1ccc(cc1)S(=O)(=O)Nc1ccccc1,"InChI=1S/C12H12N2O2S/c13-10-6-8-12(9-7-10)17(15,16)14-11-4-2-1-3-5-11/h1-9,14H,13H2",YBUXKQSCKVQATK-UHFFFAOYSA-N,?,,200.0,102500
102504,128-08-5,128-08-5,O=C1CCC(=O)N1Br,"2,5-Pyrrolidinedione, 1-bromo-","1-Bromopyrrolidine-2,5-dione","1-bromopyrrolidine-2,5-dione",29731,DTXSID2038738,O=C1CCC(=O)N1Br,InChI=1S/C4H4BrNO2/c5-6-3(7)1-2-4(6)8/h1-2H2,PCLIMKBDDGJMGD-UHFFFAOYSA-N,?,,174.0,102504
102512,128-37-0,128-37-0,Cc1cc(c(O)c(c1)C(C)(C)C)C(C)(C)C,"2,6-DI-T-BUTYL-4-METHYLPHENOL (BHT)",Butylated hydroxytoluene,"2,6-di-tert-butyl-4-methylphenol",29736,DTXSID2020216,Cc1cc(c(O)c(c1)C(C)(C)C)C(C)(C)C,"InChI=1S/C15H24O/c1-10-8-11(14(2,3)4)13(16)12(9-10)15(5,6)7/h8-9,16H,1-7H3",NLZUEZXRPGMBCV-UHFFFAOYSA-N,?,,71.0,102512
102516,128-66-5,128-66-5,O=C1c2ccccc2-c2ccc3c4c2c1ccc4-c1ccccc1C3=O,"DIBENZO(B,DEF)CHRYSENE-7,14-DIONE",C.I. Vat Yellow 4,"dibenzo[c,pqr]tetraphene-7,14-dione",29740,DTXSID6021454,O=C1c2ccccc2-c2ccc3c4c2c1ccc4-c1ccccc1C3=O,InChI=1S/C24H12O2/c25-23-17-7-3-1-5-13(17)15-9-11-20-22-16(10-12-19(23)21(15)22)14-6-2-4-8-18(14)24(20)26/h1-12H,ZTWQZJLUUZHJGS-UHFFFAOYSA-N,?,,385.0,102516
102520,128-97-2,128-97-2,OC(=O)c1ccc(c2c1c(ccc2C(O)=O)C(O)=O)C(O)=O,"1,4,5,8-Naphthalenetetracarboxylic acid","1,4,5,8-Naphthalenetetracarboxylic acid","Naphthalene-1,4,5,8-tetracarboxylic acid",29744,DTXSID4059592,OC(=O)c1ccc(c2c1c(ccc2C(O)=O)C(O)=O)C(O)=O,"InChI=1S/C14H8O8/c15-11(16)5-1-2-6(12(17)18)10-8(14(21)22)4-3-7(9(5)10)13(19)20/h1-4H,(H,15,16)(H,17,18)(H,19,20)(H,21,22)",OLAPPGSPBNVTRF-UHFFFAOYSA-N,?,,320.0,102520
102524,129-20-4,129-20-4,CCCCC1C(=O)N(c2ccccc2)N(c2ccc(O)cc2)C1=O,OXYPHENBUTAZONE,Oxyphenbutazone,"4-butyl-1-(4-hydroxyphenyl)-2-phenylpyrazolidine-3,5-dione",29748,DTXSID1045291,CCCCC1C(=O)N(c2ccccc2)N(c2ccc(O)cc2)C1=O,"InChI=1S/C19H20N2O3/c1-2-3-9-17-18(23)20(14-7-5-4-6-8-14)21(19(17)24)15-10-12-16(22)13-11-15/h4-8,10-13,17,22H,2-3,9H2,1H3",HFHZKZSRXITVMK-UHFFFAOYSA-N,?,,96.0,102524
102528,129-44-2,129-44-2,Nc1cccc2c1C(=O)c1cccc(N)c1C2=O,"9,10-Anthracenedione, 1,5-diamino-","9,10-Anthracenedione, 1,5-diamino-","1,5-diaminoanthracene-9,10-dione",29752,DTXSID1059602,Nc1cccc2c1C(=O)c1cccc(N)c1C2=O,"InChI=1S/C14H10N2O2/c15-9-5-1-3-7-11(9)14(18)8-4-2-6-10(16)12(8)13(7)17/h1-6H,15-16H2",VWBVCOPVKXNMMZ-UHFFFAOYSA-N,?,,319.0,102528
102533,130-15-4,130-15-4,O=C1C=CC(=O)c2ccccc12,"1,4-NAPHTHOQUINONE","1,4-Naphthoquinone","naphthalene-1,4-dione",29756,DTXSID5040704,O=C1C=CC(=O)c2ccccc12,InChI=1S/C10H6O2/c11-9-5-6-10(12)8-4-2-1-3-7(8)9/h1-6H,FRASJONUBLZVQX-UHFFFAOYSA-N,?,,128.5,102533
102537,130-79-0,7773-34-4,COc1ccc(cc1)/C(/CC)=C(\CC)/c1ccc(cc1)OC,Dimestrol,Diethylstilbestrol dimethyl ether,"1,1'-(3E)-hex-3-ene-3,4-diylbis(4-methoxybenzene)",29760,DTXSID4022494,COc1ccc(cc1)C(CC)=C(CC)c1ccc(cc1)OC,"InChI=1S/C20H24O2/c1-5-19(15-7-11-17(21-3)12-8-15)20(6-2)16-9-13-18(22-4)14-10-16/h7-14H,5-6H2,1-4H3/b20-19+",VQOAQMIKPYNCMV-FMQUCBEESA-N,?,,124.0,102537
102541,130-89-2,130-89-2,Cl.COc1ccc2[n]ccc([C@@H](O)[C@@H]3C[C@@H]4CC[N@]3C[C@@H]4C=C)c2c1,"QUININE, MONOHYDROCHLORIDE",Quinine hydrochloride,C20H25ClN2O2,29764,DTXSID7044213,COc1ccc2[n]ccc(C(O)C3CC4CCN3CC4C=C)c2c1,"InChI=1S/C20H24N2O2/c1-3-13-12-22-9-7-14(13)10-19(22)20(23)16-6-8-21-18-5-4-15(24-2)11-17(16)18/h3-6,8,11,13-14,19-20,23H,1,7,9-10,12H2,2H3",LOUPRKONTZGTKE-UHFFFAOYSA-N,Cl,18179.0,159.0,102541
102549,131-12-4,131-12-4,COc1c(OC)c2occc2c2OC(=O)C=Cc12,Pimpinellin,Pimpinellin,"5,6-dimethoxyfuro[2,3-h]chromen-2-one",29769,DTXSID20156831,COc1c(OC)c2occc2c2OC(=O)C=Cc12,"InChI=1S/C13H10O5/c1-15-11-7-3-4-9(14)18-10(7)8-5-6-17-12(8)13(11)16-2/h3-6H,1-2H3",BQPRWZCEKZLBHL-UHFFFAOYSA-N,?,,119.0,102549
102553,131-55-5,131-55-5,Oc1cc(O)c(cc1)C(=O)c1ccc(O)cc1O,"2,2',4,4'-Tetrahydroxybenzophenone","2,2',4,4'-Tetrahydroxybenzophenone","bis(2,4-dihydroxyphenyl)methanone",29773,DTXSID5041306,Oc1cc(O)c(cc1)C(=O)c1ccc(O)cc1O,"InChI=1S/C13H10O5/c14-7-1-3-9(11(16)5-7)13(18)10-4-2-8(15)6-12(10)17/h1-6,14-17H",WXNRYSGJLQFHBR-UHFFFAOYSA-N,?,,201.5,102553
102557,131-69-1,131-69-1,CC(=O)NS(=O)(=O)c1ccc(cc1)NC(=O)c1ccccc1C(O)=O,Phthalylsulfacetamide,"Benzoic acid, 2-[[[4-[(acetylamino)sulfonyl]phenyl]amino]carbonyl]-",2-[[4-(acetylsulfamoyl)phenyl]carbamoyl]benzoic acid,29777,DTXSID9059620,CC(=O)NS(=O)(=O)c1ccc(cc1)NC(=O)c1ccccc1C(O)=O,"InChI=1S/C16H14N2O6S/c1-10(19)18-25(23,24)12-8-6-11(7-9-12)17-15(20)13-4-2-3-5-14(13)16(21)22/h2-9H,1H3,(H,17,20)(H,18,19)(H,21,22)",SNWQKAWITMVCQW-UHFFFAOYSA-N,?,,196.0,102557
102561,131-91-9,131-91-9,Oc1ccc2ccccc2c1N=O,1-NITROSO-2-NAPHTHOL,"2-Naphthalenol, 1-nitroso-",1-nitrosonaphthalen-2-ol,29781,DTXSID9059622,Oc1ccc2ccccc2c1N=O,"InChI=1S/C10H7NO2/c12-9-6-5-7-3-1-2-4-8(7)10(9)11-13/h1-6,12H",YXAOOTNFFAQIPZ-UHFFFAOYSA-N,?,,109.5,102561
102566,132-60-5,132-60-5,OC(=O)c1cc([n]c2ccccc21)-c1ccccc1,2-PHENYLCINCHONINIC ACID,Cinchophen,2-phenylquinoline-4-carboxylic acid,29785,DTXSID0040705,OC(=O)c1cc([n]c2ccccc21)-c1ccccc1,"InChI=1S/C16H11NO2/c18-16(19)13-10-15(11-6-2-1-3-7-11)17-14-9-5-4-8-12(13)14/h1-10H,(H,18,19)",YTRMTPPVNRALON-UHFFFAOYSA-N,?,,214.5,102566
102570,132-69-4,132-69-4,Cl.CN(C)CCCOc1[n][n](Cc2ccccc2)c2ccccc21,Benzydamine hydrochloride [USAN:JAN],Benzydamine hydrochloride,"3-[(1-benzyl-1H-indazol-3-yl)oxy]-N,N-dimethylpropan-1-amine hydrochloride (1:1)",29789,DTXSID1045293,CN(C)CCCOc1[n][n](Cc2ccccc2)c2ccccc21,"InChI=1S/C19H23N3O/c1-21(2)13-8-14-23-19-17-11-6-7-12-18(17)22(20-19)15-16-9-4-3-5-10-16/h3-7,9-12H,8,13-15H2,1-2H3",CNBGNNVCVSKAQZ-UHFFFAOYSA-N,Cl,18179.0,160.0,102570
102574,133-11-9,133-11-9,Nc1cc(O)c(cc1)C(=O)Oc1ccccc1,PHENYL-4-AMINOSALICYLATE,Phenyl 4-aminosalicylate,phenyl 4-amino-2-hydroxybenzoate,29793,DTXSID7021994,Nc1cc(O)c(cc1)C(=O)Oc1ccccc1,"InChI=1S/C13H11NO3/c14-9-6-7-11(12(15)8-9)13(16)17-10-4-2-1-3-5-10/h1-8,15H,14H2",DNVVZWSVACQWJE-UHFFFAOYSA-N,?,,153.0,102574
102579,133-49-3,133-49-3,Sc1c(Cl)c(Cl)c(Cl)c(Cl)c1Cl,Pentachlorothiophenol,Pentachlorobenzenethiol,pentachlorobenzenethiol,29798,DTXSID3044540,Sc1c(Cl)c(Cl)c(Cl)c(Cl)c1Cl,InChI=1S/C6HCl5S/c7-1-2(8)4(10)6(12)5(11)3(1)9/h12H,LLMLGZUZTFMXSA-UHFFFAOYSA-N,?,,231.5,102579
102584,134-11-2,134-11-2,CCOc1ccccc1C(O)=O,"Benzoic acid, 2-ethoxy-","Benzoic acid, 2-ethoxy-",2-Ethoxybenzoic acid,29802,DTXSID3059638,CCOc1ccccc1C(O)=O,"InChI=1S/C9H10O3/c1-2-12-8-6-4-3-5-7(8)9(10)11/h3-6H,2H2,1H3,(H,10,11)",XDZMPRGFOOFSBL-UHFFFAOYSA-N,?,,20.7,102584
102589,134-55-4,NOCAS_870484,CC(=O)Oc1ccccc1C(=O)Oc1ccccc1,"BENZOIC ACID, 2-(ACETYLOXY)-, PHENYL ESTER",,,29806,DTXSID20870484,CC(=O)Oc1ccccc1C(=O)Oc1ccccc1,"InChI=1S/C15H12O4/c1-11(16)18-14-10-6-5-9-13(14)15(17)19-12-7-3-2-4-8-12/h2-10H,1H3",PSBAIJVSCTZDDB-UHFFFAOYSA-N,?,,96.0,102589
102594,134-84-9,134-84-9,Cc1ccc(cc1)C(=O)c1ccccc1,"Methanone, (4-methylphenyl)phenyl-",4-Methylbenzophenone,(4-methylphenyl)(phenyl)methanone,29810,DTXSID9037741,Cc1ccc(cc1)C(=O)c1ccccc1,"InChI=1S/C14H12O/c1-11-7-9-13(10-8-11)14(15)12-5-3-2-4-6-12/h2-10H,1H3",WXPWZZHELZEVPO-UHFFFAOYSA-N,?,,59.5,102594
102598,135-01-3,135-01-3,CCc1ccccc1CC,O-DIETHYLBENZENE,o-Diethylbenzene,"1,2-diethylbenzene",29814,DTXSID6052742,CCc1ccccc1CC,"InChI=1S/C10H14/c1-3-9-7-5-6-8-10(9)4-2/h5-8H,3-4H2,1-2H3",KVNYFPKFSJIPBJ-UHFFFAOYSA-N,?,,-31.2,102598
102602,135-19-3,135-19-3,Oc1cc2ccccc2cc1,2-NAPHTHOL,2-Naphthalenol,naphthalen-2-ol,29818,DTXSID5027061,Oc1cc2ccccc2cc1,"InChI=1S/C10H8O/c11-10-6-5-8-3-1-2-4-9(8)7-10/h1-7,11H",JWAZRIHNYRIHIV-UHFFFAOYSA-N,?,,123.0,102602
102608,135-67-1,135-67-1,c1cccc2Nc3ccccc3Oc21,PHENOXAZINE,Phenoxazine,10H-Phenoxazine,29822,DTXSID10159199,c1cccc2Nc3ccccc3Oc21,"InChI=1S/C12H9NO/c1-3-7-11-9(5-1)13-10-6-2-4-8-12(10)14-11/h1-8,13H",TZMSYXZUNZXBOL-UHFFFAOYSA-N,?,,156.0,102608
102613,135-98-8,135-98-8,CCC(C)c1ccccc1,SEC-BUTYLBENZENE,sec-Butylbenzene,butan-2-ylbenzene,29827,DTXSID2022333,CCC(C)c1ccccc1,"InChI=1S/C10H14/c1-3-9(2)10-7-5-4-6-8-10/h4-9H,3H2,1-2H3",ZJMWRROPUADPEA-UHFFFAOYSA-N,?,,-82.7,102613
102619,136-60-7,136-60-7,CCCCOC(=O)c1ccccc1,BUTYL BENZOATE,Butyl benzoate,butyl benzoate,29831,DTXSID8040694,CCCCOC(=O)c1ccccc1,"InChI=1S/C11H14O2/c1-2-3-9-13-11(12)10-7-5-4-6-8-10/h4-8H,2-3,9H2,1H3",XSIFPSYPOVKYCO-UHFFFAOYSA-N,?,,-22.4,102619
102623,136-95-8,136-95-8,Nc1[n]c2ccccc2[s]1,2-AMINOBENZOTHIAZOLE,2-Aminobenzothiazole,"1,3-benzothiazol-2-amine",29835,DTXSID1024467,Nc1[n]c2ccccc2[s]1,"InChI=1S/C7H6N2S/c8-7-9-5-3-1-2-4-6(5)10-7/h1-4H,(H2,8,9)",UHGULLIUJBCTEF-UHFFFAOYSA-N,?,,132.0,102623
102628,137-17-7,137-17-7,Cc1cc(N)c(C)cc1C,"2,4,5-Trimethylaniline","2,4,5-Trimethylaniline","2,4,5-trimethylaniline",29839,DTXSID9021398,Cc1cc(N)c(C)cc1C,"InChI=1S/C9H13N/c1-6-4-8(3)9(10)5-7(6)2/h4-5H,10H2,1-3H3",BMIPMKQAAJKBKP-UHFFFAOYSA-N,?,,68.0,102628
102633,137-66-6,137-66-6,CCCCCCCCCCCCCCCC(=O)OC[C@H](O)[C@H]1OC(=O)C(O)=C1O,Ascorbyl palmitate,Ascorbyl palmitate,"(2S)-2-[(2R)-3,4-dihydroxy-5-oxo-2,5-dihydrofuran-2-yl]-2-hydroxyethyl hexadecanoate",29843,DTXSID3041611,CCCCCCCCCCCCCCCC(=O)OCC(O)C1OC(=O)C(O)=C1O,"InChI=1S/C22H38O7/c1-2-3-4-5-6-7-8-9-10-11-12-13-14-15-18(24)28-16-17(23)21-19(25)20(26)22(27)29-21/h17,21,23,25-26H,2-16H2,1H3",QAQJMLQRFWZOBN-UHFFFAOYSA-N,?,,116.5,102633
102639,138-59-0,138-59-0,OC(=O)C1C[C@@H](O)[C@H](O)[C@H](O)C=1,SHIKIMIC ACID,Shikimic acid,"(3R,4S,5R)-3,4,5-trihydroxycyclohex-1-ene-1-carboxylic acid",29847,DTXSID4032039,OC(=O)C1CC(O)C(O)C(O)C=1,"InChI=1S/C7H10O5/c8-4-1-3(7(11)12)2-5(9)6(4)10/h1,4-6,8-10H,2H2,(H,11,12)",JXOHGGNKMLTUBP-UHFFFAOYSA-N,?,,186.0,102639
102643,139-40-2,139-40-2,CC(C)Nc1[n]c(Cl)[n]c(NC(C)C)[n]1,PROPAZINE,Propazine,"6-chloro-N,N'-di(propan-2-yl)-1,3,5-triazine-2,4-diamine",29851,DTXSID3021196,CC(C)Nc1[n]c(Cl)[n]c(NC(C)C)[n]1,"InChI=1S/C9H16ClN5/c1-5(2)11-8-13-7(10)14-9(15-8)12-6(3)4/h5-6H,1-4H3,(H2,11,12,13,14,15)",WJNRPILHGGKWCK-UHFFFAOYSA-N,?,,213.0,102643
102647,139-87-7,139-87-7,CCN(CCO)CCO,"Ethanol, 2,2'-(ethylimino)bis-",Ethyl diethanolamine,"2,2'-(ethylimino)diethanol",29855,DTXSID8041955,CCN(CCO)CCO,"InChI=1S/C6H15NO2/c1-2-7(3-5-8)4-6-9/h8-9H,2-6H2,1H3",AKNUHUCEWALCOI-UHFFFAOYSA-N,?,,-50.0,102647
102651,140-22-7,140-22-7,O=C(NNc1ccccc1)NNc1ccccc1,"Carbonic dihydrazide, 2,2'-diphenyl-","Carbonic dihydrazide, 2,2'-diphenyl-","1,3-bis(phenylamino)urea",29859,DTXSID7059690,O=C(NNc1ccccc1)NNc1ccccc1,"InChI=1S/C13H14N4O/c18-13(16-14-11-7-3-1-4-8-11)17-15-12-9-5-2-6-10-12/h1-10,14-15H,(H2,16,17,18)",KSPIHGBHKVISFI-UHFFFAOYSA-N,?,,170.0,102651
102655,140-40-9,140-40-9,CC(=O)Nc1[n]cc([s]1)[N+]([O-])=O,NITHIAMIDE,Nithiamide,"N-(5-nitro-1,3-thiazol-2-yl)acetamide",29863,DTXSID6046391,CC(=O)Nc1[n]cc([s]1)[N+]([O-])=O,"InChI=1S/C5H5N3O3S/c1-3(9)7-5-6-2-4(12-5)8(10)11/h2H,1H3,(H,6,7,9)",UJRRDDHEMZLWFI-UHFFFAOYSA-N,?,,264.5,102655
102660,140-87-4,140-87-4,NNC(=O)CC#N,Cyacetacide,Cyacetacide,2-cyanoacetohydrazide,29867,DTXSID9046572,NNC(=O)CC#N,"InChI=1S/C3H5N3O/c4-2-1-3(7)6-5/h1,5H2,(H,6,7)",HPHBOJANXDKUQD-UHFFFAOYSA-N,?,,114.5,102660
102664,141-03-7,141-03-7,CCCCOC(=O)CCC(=O)OCCCC,"Butanedioic acid, dibutyl ester",Dibutyl butanedioate,dibutyl butanedioate,29871,DTXSID7021998,CCCCOC(=O)CCC(=O)OCCCC,"InChI=1S/C12H22O4/c1-3-5-9-15-11(13)7-8-12(14)16-10-6-4-2/h3-10H2,1-2H3",YUXIBTJKHLUKBD-UHFFFAOYSA-N,?,,-29.2,102664
102668,141-17-3,141-17-3,CCCCOCCOCCOC(=O)CCCCC(=O)OCCOCCOCCCC,BIS(2-(2-BUTOXYETHOXY)ETHYL) ADIPATE,Bis[2-(2-butoxyethoxy)ethyl] hexandioate,bis[2-(2-butoxyethoxy)ethyl] hexanedioate,29875,DTXSID3027085,CCCCOCCOCCOC(=O)CCCCC(=O)OCCOCCOCCCC,"InChI=1S/C22H42O8/c1-3-5-11-25-13-15-27-17-19-29-21(23)9-7-8-10-22(24)30-20-18-28-16-14-26-12-6-4-2/h3-20H2,1-2H3",SCABKEBYDRTODC-UHFFFAOYSA-N,?,,-47.0,102668
102672,141-30-0,141-30-0,Clc1ccc(Cl)[n][n]1,"Pyridazine, 3,6-dichloro-","Pyridazine, 3,6-dichloro-","3,6-Dichloropyridazine",29879,DTXSID4059704,Clc1ccc(Cl)[n][n]1,InChI=1S/C4H2Cl2N2/c5-3-1-2-4(6)8-7-3/h1-2H,GUSWJGOYDXFJSI-UHFFFAOYSA-N,?,,67.5,102672
102676,141-53-7,141-53-7,[Na+].[O-]C=O,Sodium Formate,Sodium formate,sodium formate,29883,DTXSID2027090,OC=O,"InChI=1S/CH2O2/c2-1-3/h1H,(H,2,3)",BDAGIHXWWSANSR-UHFFFAOYSA-N,[Na+],211.0,253.0,102676
102680,141-75-3,141-75-3,CCCC(=O)Cl,Butanoyl chloride,Butyryl chloride,butanoyl chloride,29887,DTXSID5024710,CCCC(=O)Cl,"InChI=1S/C4H7ClO/c1-2-3-4(5)6/h2-3H2,1H3",DVECBJCOGJRVPX-UHFFFAOYSA-N,?,,-89.0,102680
102684,141-83-3,141-83-3,NC(=O)NC(N)=N,"Urea, (aminoiminomethyl)-",Guanylurea,1-carbamimidoylurea,29891,DTXSID3043811,NC(=O)NC(N)=N,"InChI=1S/C2H6N4O/c3-1(4)6-2(5)7/h(H6,3,4,5,6,7)",SQSPRWMERUQXNE-UHFFFAOYSA-N,?,,105.0,102684
102688,141-93-5,141-93-5,CCc1cc(CC)ccc1,M-DIETHYLBENZENE,"1,3-Diethylbenzene","1,3-diethylbenzene",29895,DTXSID1022003,CCc1cc(CC)ccc1,"InChI=1S/C10H14/c1-3-9-6-5-7-10(4-2)8-9/h5-8H,3-4H2,1-2H3",AFZZYIJIWUTJFO-UHFFFAOYSA-N,?,,-83.9,102688
102693,142-22-3,142-22-3,C=CCOC(=O)OCCOCCOC(=O)OCC=C,DIALLYL DIGLYCOL CARBONATE,"2,5,8,10-Tetraoxatridec-12-enoic acid, 9-oxo-, 2-propenyl ester","oxydiethane-2,1-diyl diprop-2-en-1-yl biscarbonate",29899,DTXSID7027095,C=CCOC(=O)OCCOCCOC(=O)OCC=C,"InChI=1S/C12H18O7/c1-3-5-16-11(13)18-9-7-15-8-10-19-12(14)17-6-4-2/h3-4H,1-2,5-10H2",JHQVCQDWGSXTFE-UHFFFAOYSA-N,?,,-4.0,102693
102697,142-30-3,142-30-3,CC(C)(O)C#CC(C)(C)O,"2,5-DIMETHYL-3-HEXYNE-2,5-DIOL","2,5-Dimethyl-3-hexyne-2,5-diol","2,5-dimethylhex-3-yne-2,5-diol",29903,DTXSID2027096,CC(C)(O)C#CC(C)(C)O,"InChI=1S/C8H14O2/c1-7(2,9)5-6-8(3,4)10/h9-10H,1-4H3",IHJUECRFYCQBMW-UHFFFAOYSA-N,?,,95.0,102697
102701,142-68-7,142-68-7,C1CCCCO1,TETRAHYDROPYRAN,Tetrahydropyran,Oxane,29907,DTXSID3059719,C1CCCCO1,InChI=1S/C5H10O/c1-2-4-6-5-3-1/h1-5H2,DHXVGJBLRPWPCS-UHFFFAOYSA-N,?,,-45.0,102701
102705,142-84-7,142-84-7,CCCNCCC,DIPROPYLAMINE,Dipropylamine,N-propylpropan-1-amine,29911,DTXSID2025185,CCCNCCC,"InChI=1S/C6H15N/c1-3-5-7-6-4-2/h7H,3-6H2,1-2H3",WEHWNAOGRSTTBQ-UHFFFAOYSA-N,?,,-63.0,102705
102709,142-96-1,142-96-1,CCCCOCCCC,DI-N-BUTYL ETHER,Butyl ether,1-butoxybutane,29915,DTXSID1022007,CCCCOCCCC,"InChI=1S/C8H18O/c1-3-5-7-9-8-6-4-2/h3-8H2,1-2H3",DURPTKYDGMDSBL-UHFFFAOYSA-N,?,,-95.2,102709
102713,143-13-5,143-13-5,CCCCCCCCCOC(C)=O,"Acetic acid, nonyl ester",Nonyl acetate,nonyl acetate,29919,DTXSID4047123,CCCCCCCCCOC(C)=O,"InChI=1S/C11H22O2/c1-3-4-5-6-7-8-9-10-13-11(2)12/h3-10H2,1-2H3",GJQIMXVRFNLMTB-UHFFFAOYSA-N,?,,-26.0,102713
102717,143-22-6,143-22-6,CCCCOCCOCCOCCO,TRIETHYLENE GLYCOL BUTYL ETHER,2-[2-(2-Butoxyethoxy)ethoxy]ethanol,2-[2-(2-butoxyethoxy)ethoxy]ethanol,29923,DTXSID7021520,CCCCOCCOCCOCCO,"InChI=1S/C10H22O4/c1-2-3-5-12-7-9-14-10-8-13-6-4-11/h11H,2-10H2,1H3",COBPKKZHLDDMTB-UHFFFAOYSA-N,?,,-30.0,102717
102722,144-12-7,144-12-7,[I-].C[N+]1(CCC(O)(c2ccc[s]2)c2ccccc2)CCOCC1,Tiemonium Iodide,,,29927,DTXSID00875078,C[N+]1(CCC(O)(c2ccc[s]2)c2ccccc2)CCOCC1,"InChI=1S/C18H24NO2S/c1-19(11-13-21-14-12-19)10-9-18(20,17-8-5-15-22-17)16-6-3-2-4-7-16/h2-8,15,20H,9-14H2,1H3/q+1",HJDYAOBDPZQHOD-UHFFFAOYSA-N,[I-],19585.0,190.0,102722