ChemID,source_casrn,CAS,SMILES,NAME,preferred_name,iupac,MPID,dsstox_substance_id,Canonical_QSARr,InChI_Code_QSARr,InChI Key_QSARr,Salt_Solvent,BP,ID
102810,622-39-9,622-39-9,CCCc1cccc[n]1,"Pyridine, 2-propyl-",2-Propylpyridine,2-Propylpyridine,21800,DTXSID2060751,CCCc1cccc[n]1,"InChI=1S/C8H11N/c1-2-5-8-6-3-4-7-9-8/h3-4,6-7H,2,5H2,1H3",OIALIKXMLIAOSN-UHFFFAOYSA-N,?,167.0,102810
102812,622-42-4,622-42-4,[O-][N+](=O)Cc1ccccc1,A-NITROTOLUENE,.alpha.-Nitrotoluene,nitromethylbenzene,21802,DTXSID7074294,[O-][N+](=O)Cc1ccccc1,"InChI=1S/C7H7NO2/c9-8(10)6-7-4-2-1-3-5-7/h1-5H,6H2",VLZLOWPYUQHHCG-UHFFFAOYSA-N,?,226.0,102812
102813,622-45-7,622-45-7,CC(=O)OC1CCCCC1,CYCLOHEXYL ACETATE,Cyclohexyl acetate,cyclohexyl acetate,21803,DTXSID6052299,CC(=O)OC1CCCCC1,"InChI=1S/C8H14O2/c1-7(9)10-8-5-3-2-4-6-8/h8H,2-6H2,1H3",YYLLIJHXUHJATK-UHFFFAOYSA-N,?,173.0,102813
102814,622-47-9,622-47-9,Cc1ccc(CC(O)=O)cc1,P-METHYLPHENYLACETIC ACID,"Acetic acid, (p-tolyl)-",2-(4-methylphenyl)acetic acid,21804,DTXSID80211238,Cc1ccc(CC(O)=O)cc1,"InChI=1S/C9H10O2/c1-7-2-4-8(5-3-7)6-9(10)11/h2-5H,6H2,1H3,(H,10,11)",GXXXUZIRGXYDFP-UHFFFAOYSA-N,?,265.0,102814
102816,622-59-3,622-59-3,Cc1ccc(cc1)N=C=S,4-METHYLPHENYLISOTHIOCYANATE,"Isothiocyanic acid, 4-tolyl ester",1-isothiocyanato-4-methylbenzene,21806,DTXSID50211240,Cc1ccc(cc1)N=C=S,"InChI=1S/C8H7NS/c1-7-2-4-8(5-3-7)9-6-10/h2-5H,1H3",ABQKHKWXTUVKGF-UHFFFAOYSA-N,?,237.0,102816
102817,622-60-6,622-60-6,Cc1ccc(cc1)OCC,"Benzene, 1-ethoxy-4-methyl-","Benzene, 1-ethoxy-4-methyl-",1-Ethoxy-4-methylbenzene,21807,DTXSID7060756,Cc1ccc(cc1)OCC,"InChI=1S/C9H12O/c1-3-10-9-6-4-8(2)5-7-9/h4-7H,3H2,1-2H3",WSWPHHNIHLTAHB-UHFFFAOYSA-N,?,188.5,102817
102818,622-61-7,622-61-7,CCOc1ccc(Cl)cc1,"Benzene, 1-chloro-4-ethoxy-","Benzene, 1-chloro-4-ethoxy-",1-Chloro-4-ethoxybenzene,21808,DTXSID2060757,CCOc1ccc(Cl)cc1,"InChI=1S/C8H9ClO/c1-2-10-8-5-3-7(9)4-6-8/h3-6H,2H2,1H3",IXLSVQMYQRAMEW-UHFFFAOYSA-N,?,213.0,102818
102820,622-63-9,622-63-9,Cc1ccc(cc1)SCC,"BENZENE, 1-(ETHYLTHIO)-4-METHYL-","Benzene, 1-(ethylthio)-4-methyl-",1-ethylsulfanyl-4-methylbenzene,21810,DTXSID10211241,Cc1ccc(cc1)SCC,"InChI=1S/C9H12S/c1-3-10-9-6-4-8(2)5-7-9/h4-7H,3H2,1-2H3",TXMFDSUMJLQLGB-UHFFFAOYSA-N,?,220.0,102820
102821,622-78-6,622-78-6,S=C=NCc1ccccc1,BENZYLISOTHIOCYANATE,Benzyl isothiocyanate,(isothiocyanatomethyl)benzene,21811,DTXSID0020155,S=C=NCc1ccccc1,"InChI=1S/C8H7NS/c10-7-9-6-8-4-2-1-3-5-8/h1-5H,6H2",MDKCFLQDBWCQCV-UHFFFAOYSA-N,?,243.0,102821
102822,622-80-0,622-80-0,CCCNc1ccccc1,N-PROPYLANILINE,"Benzenamine, N-propyl-",N-PROPYLANILINE,21812,DTXSID2060759,CCCNc1ccccc1,"InChI=1S/C9H13N/c1-2-8-10-9-6-4-3-5-7-9/h3-7,10H,2,8H2,1H3",CDZOGLJOFWFVOZ-UHFFFAOYSA-N,?,222.0,102822
102824,622-86-6,622-86-6,ClCCOc1ccccc1,"Benzene, (2-chloroethoxy)-",(2-Chloroethoxy)benzene,2-chloroethoxybenzene,21814,DTXSID6060761,ClCCOc1ccccc1,"InChI=1S/C8H9ClO/c9-6-7-10-8-4-2-1-3-5-8/h1-5H,6-7H2",VQUYNUJARXBNPK-UHFFFAOYSA-N,?,218.5,102824
102825,622-93-5,622-93-5,CCN(CCCO)CC,"1-Propanol, 3-(diethylamino)-","1-Propanol, 3-(diethylamino)-",3-Diethylaminopropan-1-ol,21815,DTXSID1060762,CCN(CCCO)CC,"InChI=1S/C7H17NO/c1-3-8(4-2)6-5-7-9/h9H,3-7H2,1-2H3",WKCYFSZDBICRKL-UHFFFAOYSA-N,?,189.5,102825
102826,622-96-8,622-96-8,Cc1ccc(CC)cc1,P-ETHYLTOLUENE,4-Ethyltoluene,1-ethyl-4-methylbenzene,21816,DTXSID9029194,Cc1ccc(CC)cc1,"InChI=1S/C9H12/c1-3-9-6-4-8(2)5-7-9/h4-7H,3H2,1-2H3",JRLPEMVDPFPYPJ-UHFFFAOYSA-N,?,162.0,102826
102828,622-98-0,622-98-0,CCc1ccc(Cl)cc1,"BENZENE, 1-CHLORO-4-ETHYL-",1-Chloro-4-ethylbenzene,1-Chloro-4-ethylbenzene,21818,DTXSID30211248,CCc1ccc(Cl)cc1,"InChI=1S/C8H9Cl/c1-2-7-3-5-8(9)6-4-7/h3-6H,2H2,1H3",GPOFSFLJOIAMSA-UHFFFAOYSA-N,?,184.4,102828
102829,623-00-7,623-00-7,N#Cc1ccc(Br)cc1,4-BROMOBENZONITRILE,"Benzonitrile, 4-bromo-",4-Bromobenzonitrile,21819,DTXSID60211352,N#Cc1ccc(Br)cc1,InChI=1S/C7H4BrN/c8-7-3-1-6(5-9)2-4-7/h1-4H,HQSCPPCMBMFJJN-UHFFFAOYSA-N,?,236.0,102829
102830,623-03-0,623-03-0,N#Cc1ccc(Cl)cc1,"BENZONITRILE, 4-CHLORO-",4-Chlorobenzonitrile,4-chlorobenzonitrile,21820,DTXSID8044703,N#Cc1ccc(Cl)cc1,InChI=1S/C7H4ClN/c8-7-3-1-6(5-9)2-4-7/h1-4H,GJNGXPDXRVXSEH-UHFFFAOYSA-N,?,223.0,102830
102832,623-08-5,623-08-5,Cc1ccc(cc1)NC,N-METHYL P-TOLUIDINE,"Benzenamine, N,4-dimethyl-","N,4-DIMETHYLANILINE",21822,DTXSID6060763,Cc1ccc(cc1)NC,"InChI=1S/C8H11N/c1-7-3-5-8(9-2)6-4-7/h3-6,9H,1-2H3",QCIFLGSATTWUQJ-UHFFFAOYSA-N,?,210.0,102832
102833,623-09-6,623-09-6,CNc1ccc(N)cc1,"N-METHYL-1,4-BENZENEDIAMINE",4-Amino-N-methylaniline,"N-methylbenzene-1,4-diamine",21823,DTXSID80211354,CNc1ccc(N)cc1,"InChI=1S/C7H10N2/c1-9-7-4-2-6(8)3-5-7/h2-5,9H,8H2,1H3",VVYWUQOTMZEJRJ-UHFFFAOYSA-N,?,258.0,102833
102834,623-12-1,623-12-1,COc1ccc(Cl)cc1,4-CHLOROANISOLE,"Benzene, 1-chloro-4-methoxy-",1-Chloro-4-methoxybenzene,21824,DTXSID1060764,COc1ccc(Cl)cc1,"InChI=1S/C7H7ClO/c1-9-7-4-2-6(8)3-5-7/h2-5H,1H3",YRGAYAGBVIXNAQ-UHFFFAOYSA-N,?,197.5,102834
102836,623-19-8,NOCAS_862312,CCC(=O)OCc1ccco1,"2-Furanmethanol, propanoate",,,21826,DTXSID50862312,CCC(=O)OCc1ccco1,"InChI=1S/C8H10O3/c1-2-8(9)11-6-7-4-3-5-10-7/h3-5H,2,6H2,1H3",LGBXNZSSTFWRFS-UHFFFAOYSA-N,?,195.0,102836
102837,623-21-2,623-21-2,CCCC(=O)OCc1ccco1,Butyric acid furan-2-ylmethyl ester,Furfuryl butyrate,furan-2-ylmethyl butanoate,21827,DTXSID60211357,CCCC(=O)OCc1ccco1,"InChI=1S/C9H12O3/c1-2-4-9(10)12-7-8-5-3-6-11-8/h3,5-6H,2,4,7H2,1H3",IXISGRHWGVGCAK-UHFFFAOYSA-N,?,212.5,102837
102838,623-24-5,623-24-5,BrCc1ccc(CBr)cc1,"Benzene, 1,4-bis(bromomethyl)-","1,4-Bis(bromomethyl)benzene","1,4-Bis(bromomethyl)benzene",21828,DTXSID6060767,BrCc1ccc(CBr)cc1,"InChI=1S/C8H8Br2/c9-5-7-1-2-8(6-10)4-3-7/h1-4H,5-6H2",RBZMSGOBSOCYHR-UHFFFAOYSA-N,?,245.0,102838
102840,623-34-7,NOCAS_870707,CC(CCCl)CCl,"BUTANE, 1,4-DICHLORO-2-METHYL-","1,4-Dichloro-2-methylbutane",C5H10Cl2,21830,DTXSID20870707,CC(CCCl)CCl,"InChI=1S/C5H10Cl2/c1-5(4-7)2-3-6/h5H,2-4H2,1H3",OUSZUUNUORQHDW-UHFFFAOYSA-N,?,168.5,102840
102841,623-36-9,623-36-9,CC(C=O)=CCC,"2-Pentenal, 2-methyl-",2-Methylpent-2-enal,2-methylpent-2-enal,21831,DTXSID3052301,CC(C=O)=CCC,"InChI=1S/C6H10O/c1-3-4-6(2)5-7/h4-5H,3H2,1-2H3/b6-4-",IDEYZABHVQLHAF-XQRVVYSFSA-N,?,136.5,102841
102842,623-37-0,6210-51-1,CC[C@H](O)CCC,3-HEXANOL,(3S)-hexan-3-ol,C6H14O,21832,DTXSID40348539,CCC(O)CCC,"InChI=1S/C6H14O/c1-3-5-6(7)4-2/h6-7H,3-5H2,1-2H3",ZOCHHNOQQHDWHG-UHFFFAOYSA-N,?,134.75,102842
102844,623-40-5,1188-11-0,CCC(CC)=NO,Pentan-3-one oxime,3-pentanone oxime,C5H11NO,21834,DTXSID90384321,CCC(CC)N=O,"InChI=1S/C5H11NO/c1-3-5(4-2)6-7/h5H,3-4H2,1-2H3",ZYDHALFDTPCOOU-UHFFFAOYSA-N,?,168.0,102844
102845,623-42-7,623-42-7,CCCC(=O)OC,METHYLBUTYRATE,Methyl butyrate,methyl butanoate,21835,DTXSID5047083,CCCC(=O)OC,"InChI=1S/C5H10O2/c1-3-4-5(6)7-2/h3-4H2,1-2H3",UUIQMZJEGPQKFD-UHFFFAOYSA-N,?,102.8,102845
102846,623-43-8|4358-59-2,623-43-8|4358-59-2,C/C=C/C(=O)OC,"2-Butenoic acid, methyl ester, (E)-, 2-BUTENOIC ACID, METHYL ESTER, (Z)-",,,21836|23627,DTXSID10878813|DTXSID50878812,CC=CC(=O)OC,"InChI=1S/C5H8O2/c1-3-4-5(6)7-2/h3-4H,1-2H3/b4-3+",MCVVUJPXSBQTRZ-ONEGZZNKSA-N,?,119.5,102846
102848,623-47-2,623-47-2,CCOC(=O)C#C,ETHYL PROPYNOATE,Ethyl propiolate,ethyl prop-2-ynoate,21838,DTXSID80211359,CCOC(=O)C#C,"InChI=1S/C5H6O2/c1-3-5(6)7-4-2/h1H,4H2,2H3",FMVJYQGSRWVMQV-UHFFFAOYSA-N,?,120.0,102848
102849,623-48-3,623-48-3,CCOC(=O)CI,ETHYL IODOACETATE,"Acetic acid, iodo-, ethyl ester",ethyl 2-iodoacetate,21839,DTXSID5060770,CCOC(=O)CI,"InChI=1S/C4H7IO2/c1-2-7-4(6)3-5/h2-3H2,1H3",MFFXVVHUKRKXCI-UHFFFAOYSA-N,?,179.0,102849
102850,623-49-4,623-49-4,CCOC(=O)C#N,"Carbonocyanidic acid, ethyl ester","Carbonocyanidic acid, ethyl ester",Ethyl cyanoformate,21840,DTXSID0060771,CCOC(=O)C#N,"InChI=1S/C4H5NO2/c1-2-7-4(6)3-5/h2H2,1H3",MSMGXWFHBSCQFB-UHFFFAOYSA-N,?,115.5,102850
102852,623-51-8,623-51-8,CCOC(=O)CS,"ACETIC ACID, MERCAPTO-, ETHYL ESTER","Acetic acid,mercapto-,ethylester",ethyl sulfanylacetate,21842,DTXSID8049337,CCOC(=O)CS,"InChI=1S/C4H8O2S/c1-2-6-4(5)3-7/h7H,2-3H2,1H3",PVBRSNZAOAJRKO-UHFFFAOYSA-N,?,157.0,102852
102853,623-56-3,623-56-3,CCC(=O)CC(C)C,"3-HEXANONE, 5-METHYL-",5-Methylhexan-3-one,5-Methylhexan-3-one,21843,DTXSID90211360,CCC(=O)CC(C)C,"InChI=1S/C7H14O/c1-4-7(8)5-6(2)3/h6H,4-5H2,1-3H3",DXVYLFHTJZWTRF-UHFFFAOYSA-N,?,135.0,102853
102854,623-66-5,623-66-5,CCCCCCCC(=O)OC(=O)CCCCCCC,"Octanoic acid, anhydride",Octanoic anhydride,octanoyl octanoate,21844,DTXSID70211363,CCCCCCCC(=O)OC(=O)CCCCCCC,"InChI=1S/C16H30O3/c1-3-5-7-9-11-13-15(17)19-16(18)14-12-10-8-6-4-2/h3-14H2,1-2H3",RAFYDKXYXRZODZ-UHFFFAOYSA-N,?,282.5,102854
102856,623-69-8,623-69-8,COCC(O)COC,"2-PROPANOL, 1,3-DIMETHOXY-","2-Propanol, 1,3-dimethoxy-","1,3-dimethoxypropan-2-ol",21846,DTXSID30211364,COCC(O)COC,"InChI=1S/C5H12O3/c1-7-3-5(6)4-8-2/h5-6H,3-4H2,1-2H3",ZESKRVSPQJVIMH-UHFFFAOYSA-N,?,169.0,102856
102857,623-70-1|10544-63-5,623-70-1|10544-63-5,C/C=C/C(=O)OCC,"2-Butenoic acid, ethyl ester, (E)-, 2-Butenoic acid, ethyl ester",Ethyl crotonate,ethyl (2E)-but-2-enoate,21847|24103,DTXSID5057591|DTXSID8065119,CC=CC(=O)OCC,"InChI=1S/C6H10O2/c1-3-5-6(7)8-4-2/h3,5H,4H2,1-2H3/b5-3+",ZFDIRQKJPRINOQ-HWKANZROSA-N,?,137.25,102857
102858,623-71-2,623-71-2,CCOC(=O)CCCl,"Propanoic acid, 3-chloro-, ethyl ester","Propanoic acid, 3-chloro-, ethyl ester",Ethyl 3-chloropropanoate,21848,DTXSID5060774,CCOC(=O)CCCl,"InChI=1S/C5H9ClO2/c1-2-8-5(7)3-4-6/h2-4H2,1H3",ZCLGVXACCAZJOX-UHFFFAOYSA-N,?,162.0,102858
102860,623-78-9,623-78-9,CCOC(=O)NCC,ETHYL ETHYLCARBAMATE,Ethyl ethylcarbamate,Ethyl N-ethylcarbamate,21850,DTXSID0060775,CCOC(=O)NCC,"InChI=1S/C5H11NO2/c1-3-6-5(7)8-4-2/h3-4H2,1-2H3,(H,6,7)",GZXSDYYWLZERLF-UHFFFAOYSA-N,?,176.0,102860
102861,623-80-3,623-80-3,CCSC(=O)SCC,"S,S-DIETHYL CARBONODITHIOATE","S,S-diethyl carbamodithioate",bis(ethylsulfanyl)methanone,21851,DTXSID50211366,CCSC(=O)SCC,"InChI=1S/C5H10OS2/c1-3-7-5(6)8-4-2/h3-4H2,1-2H3",MBUCFVKJCBBWRI-UHFFFAOYSA-N,?,197.0,102861
102862,623-81-4,623-81-4,CCOS(=O)OCC,"Sulfurous acid, diethyl ester","Sulfurous acid, diethyl ester",Diethyl sulfite,21852,DTXSID0060777,CCOS(=O)OCC,"InChI=1S/C4H10O3S/c1-3-6-8(5)7-4-2/h3-4H2,1-2H3",NVJBFARDFTXOTO-UHFFFAOYSA-N,?,158.0,102862
102864,623-85-8,623-85-8,CCOC(=O)NCCC,N-Propyl-O-ethylcarbamate,"Carbamic acid, propyl-, ethyl ester",ethyl N-propylcarbamate,21854,DTXSID10211367,CCOC(=O)NCCC,"InChI=1S/C6H13NO2/c1-3-5-7-6(8)9-4-2/h3-5H2,1-2H3,(H,7,8)",GTOKAWYXANYGFG-UHFFFAOYSA-N,?,192.0,102864
102866,623-93-8,623-93-8,CCCCC(O)CCCC,5-NONANOL,Nonan-5-ol,Nonan-5-ol,21856,DTXSID70211368,CCCCC(O)CCCC,"InChI=1S/C9H20O/c1-3-5-7-9(10)8-6-4-2/h9-10H,3-8H2,1-2H3",FCBBRODPXVPZAH-UHFFFAOYSA-N,?,193.0,102866
102867,623-95-0,623-95-0,CCCNC(=O)NCCC,"N,N'-Dipropylurea","1,3-Dipropylurea","1,3-Dipropylurea",21857,DTXSID30211369,CCCNC(=O)NCCC,"InChI=1S/C7H16N2O/c1-3-5-8-7(10)9-6-4-2/h3-6H2,1-2H3,(H2,8,9,10)",AWHORBWDEKTQAX-UHFFFAOYSA-N,?,255.0,102867
102870,624-09-9,624-09-9,CCCCCCC(=O)OCCCCCCC,"HEPTANOIC ACID, HEPTYL ESTER",Heptyl heptanoate,Heptyl heptanoate,21859,DTXSID80211450,CCCCCCC(=O)OCCCCCCC,"InChI=1S/C14H28O2/c1-3-5-7-9-11-13-16-14(15)12-10-8-6-4-2/h3-13H2,1-2H3",QOIIBPAJVWFEPE-UHFFFAOYSA-N,?,277.0,102870
102871,624-13-5,624-13-5,CCCCCCCC(=O)OCCC,"Octanoic acid, propyl ester",Propyl octanoate,Propyl octanoate,21860,DTXSID9060782,CCCCCCCC(=O)OCCC,"InChI=1S/C11H22O2/c1-3-5-6-7-8-9-11(12)13-10-4-2/h3-10H2,1-2H3",IDHBLVYDNJDWNO-UHFFFAOYSA-N,?,226.4,102871
102872,624-16-8,624-16-8,CCCC(=O)CCCCCC,4-DECANONE,4-Decanone,decan-4-one,21861,DTXSID40211451,CCCC(=O)CCCCCC,"InChI=1S/C10H20O/c1-3-5-6-7-9-10(11)8-4-2/h3-9H2,1-2H3",MKJDUHZPLQYUCB-UHFFFAOYSA-N,?,206.5,102872
102874,624-24-8,624-24-8,CCCCC(=O)OC,METHYL VALERATE,Methyl valerate,Methyl pentanoate,21863,DTXSID9060784,CCCCC(=O)OC,"InChI=1S/C6H12O2/c1-3-4-5-6(7)8-2/h3-5H2,1-2H3",HNBDRPTVWVGKBR-UHFFFAOYSA-N,?,127.4,102874
102876,624-31-7,624-31-7,Cc1ccc(I)cc1,"Benzene, 1-iodo-4-methyl-","Benzene, 1-iodo-4-methyl-",1-Iodo-4-methylbenzene,21864,DTXSID4060785,Cc1ccc(I)cc1,"InChI=1S/C7H7I/c1-6-2-4-7(8)5-3-6/h2-5H,1H3",UDHAWRUAECEBHC-UHFFFAOYSA-N,?,211.0,102876
102877,624-38-4,624-38-4,Ic1ccc(I)cc1,"1,4-DIIODOBENZENE","1,4-Diiodobenzene","1,4-diiodobenzene",21865,DTXSID2022092,Ic1ccc(I)cc1,InChI=1S/C6H4I2/c7-5-1-2-6(8)4-3-5/h1-4H,LFMWZTSOMGDDJU-UHFFFAOYSA-N,?,285.0,102877
102879,624-42-0,624-42-0,CCC(=O)CCC(C)C,ETHYL ISOAMYL KETONE,Ethyl iso-amyl ketone,6-Methylheptan-3-one,21867,DTXSID20211454,CCC(=O)CCC(C)C,"InChI=1S/C8H16O/c1-4-8(9)6-5-7(2)3/h7H,4-6H2,1-3H3",CCCIYAQYQZQDIZ-UHFFFAOYSA-N,?,164.0,102879
102881,624-44-2,624-44-2,CC(C)CCC(C)=NO,"2-Hexanone, 5-methyl-, oxime","2-Hexanone, 5-methyl-, oxime",,21868,DTXSID9060786,CC(C)CCC(C)N=O,"InChI=1S/C7H15NO/c1-6(2)4-5-7(3)8-9/h6-7H,4-5H2,1-3H3",TZDDXHDWBRLINT-UHFFFAOYSA-N,?,195.5,102881
102882,624-45-3,624-45-3,CC(=O)CCC(=O)OC,"PENTANOIC ACID, 4-OXO-, METHYL ESTER",Methyl levulinate,methyl 4-oxopentanoate,21869,DTXSID80211455,CC(=O)CCC(=O)OC,"InChI=1S/C6H10O3/c1-5(7)3-4-6(8)9-2/h3-4H2,1-2H3",UAGJVSRUFNSIHR-UHFFFAOYSA-N,?,196.0,102882
102885,624-54-4,624-54-4,CCCCCOC(=O)CC,AMYL PROPIONATE,Pentyl propionate,pentyl propanoate,21872,DTXSID4041606,CCCCCOC(=O)CC,"InChI=1S/C8H16O2/c1-3-5-6-7-10-8(9)4-2/h3-7H2,1-2H3",TWSRVQVEYJNFKQ-UHFFFAOYSA-N,?,168.6,102885
102887,624-65-7,624-65-7,C#CCCl,"1-Propyne, 3-chloro-","1-Propyne, 3-chloro-",3-chloroprop-1-yne,21874,DTXSID4060789,C#CCCl,"InChI=1S/C3H3Cl/c1-2-3-4/h1H,3H2",LJZPPWWHKPGCHS-UHFFFAOYSA-N,?,58.0,102887
102888,624-67-9,624-67-9,C#CC=O,2-Propynal,2-Propynal,prop-2-ynal,21875,DTXSID3060790,C#CC=O,"InChI=1S/C3H2O/c1-2-3-4/h1,3H",IJNJLGFTSIAHEA-UHFFFAOYSA-N,?,60.0,102888
102890,624-72-6,624-72-6,FCCF,"1,2-DIFLUOROETHANE",HFC-152,"1,2-DIFLUOROETHANE",21877,DTXSID3073214,FCCF,InChI=1S/C2H4F2/c3-1-2-4/h1-2H2,AHFMSNDOYCFEPH-UHFFFAOYSA-N,?,30.7,102890
102891,624-73-7,624-73-7,ICCI,"ETHANE, 1,2-DIIODO-","Ethane, 1,2-diiodo-","1,2-DIIODOETHANE",21878,DTXSID8060791,ICCI,InChI=1S/C2H4I2/c3-1-2-4/h1-2H2,GBBZLMLLFVFKJM-UHFFFAOYSA-N,?,200.0,102891
102892,624-75-9,624-75-9,N#CCI,IODOACETONITRILE,"Acetonitrile, iodo-",2-iodoacetonitrile,21879,DTXSID8073215,N#CCI,InChI=1S/C2H2IN/c3-1-2-4/h1H2,VODKOOOHHCAWFR-UHFFFAOYSA-N,?,185.0,102892
102894,624-83-9,624-83-9,CN=C=O,METHYLISOCYANATE,Methyl isocyanate,isocyanatomethane,21881,DTXSID1023786,CN=C=O,InChI=1S/C2H3NO/c1-3-2-4/h1H3,HAMGRBXTJNITHG-UHFFFAOYSA-N,?,39.5,102894
102895,624-89-5,624-89-5,CCSC,ETHYL METHYL SULFIDE,Ethyl methyl sulfide,methylsulfanylethane,21882,DTXSID3060794,CCSC,"InChI=1S/C3H8S/c1-3-4-2/h3H2,1-2H3",WXEHBUMAEPOYKP-UHFFFAOYSA-N,?,66.7,102895
102896,624-91-9,624-91-9,CON=O,METHYLNITRITE,Methyl nitrite,Methyl nitrite,21883,DTXSID8060795,CON=O,InChI=1S/CH3NO2/c1-4-2-3/h1H3,BLLFVUPNHCTMSV-UHFFFAOYSA-N,?,-12.0,102896
102898,624-95-3,624-95-3,CC(C)(C)CCO,"3,3-DIMETHYL-1-BUTANOL","3,3-Dimethyl-1-butanol","3,3-Dimethylbutan-1-ol",21885,DTXSID3060796,CC(C)(C)CCO,"InChI=1S/C6H14O/c1-6(2,3)4-5-7/h7H,4-5H2,1-3H3",DUXCSEISVMREAX-UHFFFAOYSA-N,?,143.0,102898
102899,624-96-4,624-96-4,CC(C)(Cl)CCCl,"BUTANE, 1,3-DICHLORO-3-METHYL-","1,3-Dichloro-3-methylbutane","1,3-Dichloro-3-methylbutane",21886,DTXSID10211463,CC(C)(Cl)CCCl,"InChI=1S/C5H10Cl2/c1-5(2,7)3-4-6/h3-4H2,1-2H3",QGCOTJZDMVMLRQ-UHFFFAOYSA-N,?,146.7,102899
102900,625-01-4,625-01-4,CCOS(=O)(=O)Cl,"Chlorosulfuric acid, ethyl ester","Chlorosulfuric acid, ethyl ester",chlorosulfonyloxyethane,21887,DTXSID8060797,CCOS(=O)(=O)Cl,"InChI=1S/C2H5ClO3S/c1-2-6-7(3,4)5/h2H2,1H3",ASKHTHDBINVNFJ-UHFFFAOYSA-N,?,152.5,102900
102902,625-06-9,625-06-9,CC(C)CC(C)(C)O,"2,4-DIMETHYL-2-PENTANOL","2,4-Dimethylpentan-2-ol","2,4-Dimethylpentan-2-ol",21889,DTXSID60211534,CC(C)CC(C)(C)O,"InChI=1S/C7H16O/c1-6(2)5-7(3,4)8/h6,8H,5H2,1-4H3",FMLSQAUAAGVTJO-UHFFFAOYSA-N,?,133.1,102902
102903,625-23-0,NOCAS_870713,CCCCC(C)(C)O,2-METHYL-2-HEXANOL,,,21890,DTXSID30870713,CCCCC(C)(C)O,"InChI=1S/C7H16O/c1-4-5-6-7(2,3)8/h8H,4-6H2,1-3H3",KRIMXCDMVRMCTC-UHFFFAOYSA-N,?,143.0,102903
102904,625-25-2,625-25-2,CCCCCC(C)(C)O,2-METHYL-2-HEPTANOL,2-Methylheptan-2-ol,2-Methylheptan-2-ol,21891,DTXSID00211538,CCCCCC(C)(C)O,"InChI=1S/C8H18O/c1-4-5-6-7-8(2,3)9/h9H,4-7H2,1-3H3",ACBMYYVZWKYLIP-UHFFFAOYSA-N,?,156.0,102904
102906,625-28-5,625-28-5,CC(C)CC#N,"BUTANENITRILE, 3-METHYL-",Isovaleronitrile,3-methylbutanenitrile,21893,DTXSID0021620,CC(C)CC#N,"InChI=1S/C5H9N/c1-5(2)3-4-6/h5H,3H2,1-2H3",QHDRKFYEGYYIIK-UHFFFAOYSA-N,?,127.5,102906
102907,625-29-6,NOCAS_870714,CCCC(C)Cl,2-CHLOROPENTANE,,,21894,DTXSID90870714,CCCC(C)Cl,"InChI=1S/C5H11Cl/c1-3-4-5(2)6/h5H,3-4H2,1-2H3",NFRKUDYZEVQXTE-UHFFFAOYSA-N,?,99.0,102907
102908,625-30-9,NOCAS_870715,CCCC(C)N,2-PENTANAMINE,,,21895,DTXSID50870715,CCCC(C)N,"InChI=1S/C5H13N/c1-3-4-5(2)6/h5H,3-4,6H2,1-2H3",IGEIPFLJVCPEKU-UHFFFAOYSA-N,?,92.0,102908
102910,625-33-2|3102-33-8,625-33-2,CC=CC(C)=O,"3-PENTEN-2-ONE, 3-PENTEN-2-ONE, (E)-",3-Penten-2-one,?,21897|23398,DTXSID0060800,CC=CC(C)=O,"InChI=1S/C5H8O/c1-3-4-5(2)6/h3-4H,1-2H3/b4-3+",LABTWGUMFABVFG-ONEGZZNKSA-N,?,122.25,102910
102911,625-36-5,625-36-5,O=C(Cl)CCCl,"Propanoyl chloride, 3-chloro-","Propanoyl chloride, 3-chloro-",3-Chloropropanoyl chloride,21898,DTXSID5060801,O=C(Cl)CCCl,InChI=1S/C3H4Cl2O/c4-2-1-3(5)6/h1-2H2,INUNLMUAPJVRME-UHFFFAOYSA-N,?,144.0,102911
102912,625-38-7,625-38-7,C=CCC(O)=O,3-Butenoic acid,3-Butenoic acid,But-3-enoic acid,21899,DTXSID60211539,C=CCC(O)=O,"InChI=1S/C4H6O2/c1-2-3-4(5)6/h2H,1,3H2,(H,5,6)",PVEOYINWKBTPIZ-UHFFFAOYSA-N,?,169.0,102912
102914,625-45-6,625-45-6,COCC(O)=O,METHOXYACETIC ACID,Methoxyacetic acid,methoxyacetic acid,21901,DTXSID1031591,COCC(O)=O,"InChI=1S/C3H6O3/c1-6-2-3(4)5/h2H2,1H3,(H,4,5)",RMIODHQZRUFFFF-UHFFFAOYSA-N,?,203.5,102914
102915,625-46-7,625-46-7,C=CC[N+]([O-])=O,3-Nitropropene,"1-Propene, 3-nitro-",3-nitroprop-1-ene,21902,DTXSID30211541,C=CC[N+]([O-])=O,"InChI=1S/C3H5NO2/c1-2-3-4(5)6/h2H,1,3H2",VLISOFDTMSFZPP-UHFFFAOYSA-N,?,127.5,102915
102916,625-47-8,625-47-8,[O-][N+](=O)CCCl,"ETHANE, 1-CHLORO-2-NITRO-","Ethane, 1-chloro-2-nitro-",1-chloro-2-nitroethane,21903,DTXSID90211542,[O-][N+](=O)CCCl,InChI=1S/C2H4ClNO2/c3-1-2-4(5)6/h1-2H2,XMZRJPITAOAPLJ-UHFFFAOYSA-N,?,173.5,102916
102918,625-50-3,625-50-3,CCNC(C)=O,"Acetamide, N-ethyl-","Acetamide, N-ethyl-",N-ETHYLACETAMIDE,21905,DTXSID5060803,CCNC(C)=O,"InChI=1S/C4H9NO/c1-3-5-4(2)6/h3H2,1-2H3,(H,5,6)",PMDCZENCAXMSOU-UHFFFAOYSA-N,?,205.0,102918
102919,625-54-7,625-54-7,CCOC(C)C,ETHYL ISOPROPYL ETHER,"Propane, 2-ethoxy-",2-Ethoxypropane,21906,DTXSID5060805,CCOC(C)C,"InChI=1S/C5H12O/c1-4-6-5(2)3/h5H,4H2,1-3H3",XSJVWZAETSBXKU-UHFFFAOYSA-N,?,54.1,102919
102920,625-55-8,625-55-8,CC(C)OC=O,ISOPROPYL FORMATE,Isopropyl formate,propan-2-yl formate,21907,DTXSID2027258,CC(C)OC=O,"InChI=1S/C4H8O2/c1-4(2)6-3-5/h3-4H,1-2H3",RMOUBSOVHSONPZ-UHFFFAOYSA-N,?,68.2,102920
102922,625-58-1,625-58-1,CCO[N+]([O-])=O,ETHYLNITRATE,Ethyl nitrate,Ethyl nitrate,21909,DTXSID0060806,CCO[N+]([O-])=O,"InChI=1S/C2H5NO3/c1-2-6-3(4)5/h2H2,1H3",IDNUEBSJWINEMI-UHFFFAOYSA-N,?,87.2,102922
102923,625-60-5|59094-77-8,625-60-5,CCSC(C)=O,"Ethanethioic acid, S-ethyl ester, Ethanethioic acid, ethyl ester","Ethanethioic acid, S-ethyl ester",S-Ethyl ethanethioate,21910|24617,DTXSID5060807,CCSC(C)=O,"InChI=1S/C4H8OS/c1-3-6-4(2)5/h3H2,1-2H3",APTGPWJUOYMUCE-UHFFFAOYSA-N,?,116.4,102923
102924,625-65-0,625-65-0,CC(C)C=C(C)C,"2-PENTENE, 2,4-DIMETHYL-","2,4-Dimethylpent-2-ene","2,4-Dimethylpent-2-ene",21911,DTXSID70211545,CC(C)C=C(C)C,"InChI=1S/C7H14/c1-6(2)5-7(3)4/h5-6H,1-4H3",VVCFYASOGFVJFN-UHFFFAOYSA-N,?,83.4,102924
102926,625-67-2,NOCAS_870716,CC(Cl)CC(C)Cl,"PENTANE, 2,4-DICHLORO-",,,21913,DTXSID10870716,CC(Cl)CC(C)Cl,"InChI=1S/C5H10Cl2/c1-4(6)3-5(2)7/h4-5H,3H2,1-2H3",DYGOBGYJRRKFEN-UHFFFAOYSA-N,?,145.0,102926
102927,625-69-4,625-69-4,CC(O)CC(C)O,"2,4-Pentanediol","2,4-Pentanediol","pentane-2,4-diol",21914,DTXSID9032878,CC(O)CC(C)O,"InChI=1S/C5H12O2/c1-4(6)3-5(2)7/h4-7H,3H2,1-2H3",GTCCGKPBSJZVRZ-UHFFFAOYSA-N,?,199.0,102927
102928,625-74-1,625-74-1,CC(C)C[N+]([O-])=O,ISONITROBUTANE,"Propane, 2-methyl-1-nitro-",2-Methyl-1-nitropropane,21915,DTXSID90211547,CC(C)C[N+]([O-])=O,"InChI=1S/C4H9NO2/c1-4(2)3-5(6)7/h4H,3H2,1-2H3",XFXRMDNWSGXSNJ-UHFFFAOYSA-N,?,140.5,102928