ChemID,source_casrn,CAS,SMILES,NAME,preferred_name,iupac,MPID,dsstox_substance_id,Canonical_QSARr,InChI_Code_QSARr,InChI Key_QSARr,Salt_Solvent,Salt_Solvent_ID,MP,ID
100771,,80-78-4,C[C@@H]1CN2[C@H](CC1)[C@@H](C)[C@H]1[C@@H]2C[C@H]2[C@@H]3CC=C4C[C@@H](O)CC[C@]4(C)[C@H]3CC[C@@]21C,Solanidine,,,28098,,CC1CN2C(CC1)C(C)C1C2CC2C3CC=C4CC(O)CCC4(C)C3CCC21C,"InChI=1S/C27H43NO/c1-16-5-8-23-17(2)25-24(28(23)15-16)14-22-20-7-6-18-13-19(29)9-11-26(18,3)21(20)10-12-27(22,25)4/h6,16-17,19-25,29H,5,7-15H2,1-4H3",JVKYZPBMZPJNAJ-UHFFFAOYSA-N,?,,218.5,100771
100773,80-92-2,80-92-2,CC(O)[C@H]1CC[C@H]2[C@@H]3CC[C@@H]4C[C@@H](O)CC[C@]4(C)[C@H]3CC[C@@]21C,Pregnanediol,Pregnandiol,"(3beta,5beta)-pregnane-3,20-diol",28099,DTXSID6046218,CC(O)C1CCC2C3CCC4CC(O)CCC4(C)C3CCC21C,"InChI=1S/C21H36O2/c1-13(22)17-6-7-18-16-5-4-14-12-15(23)8-10-20(14,2)19(16)9-11-21(17,18)3/h13-19,22-23H,4-12H2,1-3H3",YWYQTGBBEZQBGO-UHFFFAOYSA-N,?,,243.5,100773
100775,81-08-3,81-08-3,O=C1OS(=O)(=O)c2ccccc12,"3H-2,1-Benzoxathiol-3-one, 1,1-dioxide","3H-2,1-Benzoxathiol-3-one 1,1-dioxide","3H-2,1-benzoxathiol-3-one 1,1-dioxide",28101,DTXSID4038681,O=C1OS(=O)(=O)c2ccccc12,"InChI=1S/C7H4O4S/c8-7-5-3-1-2-4-6(5)12(9,10)11-7/h1-4H",NCYNKWQXFADUOZ-UHFFFAOYSA-N,?,,129.5,100775
100776,81-14-1,81-14-1,CC(=O)c1c(C)c(c(c(c1C)[N+]([O-])=O)C(C)(C)C)[N+]([O-])=O,Musk ketone,Musk ketone,"1-(4-tert-butyl-2,6-dimethyl-3,5-dinitrophenyl)ethanone",28102,DTXSID6025690,CC(=O)c1c(C)c(c(c(c1C)[N+]([O-])=O)C(C)(C)C)[N+]([O-])=O,"InChI=1S/C14H18N2O5/c1-7-10(9(3)17)8(2)13(16(20)21)11(14(4,5)6)12(7)15(18)19/h1-6H3",WXCMHFPAUCOJIG-UHFFFAOYSA-N,?,,135.5,100776
100777,81-15-2,81-15-2,CC(C)(C)c1c(c(C)c(c(C)c1[N+]([O-])=O)[N+]([O-])=O)[N+]([O-])=O,"5-tert-Butyl-2,4,6-trinitroxylene","2,4,6-Trinitro-1,3-dimethyl-5-tert-butylbenzene","1-tert-butyl-3,5-dimethyl-2,4,6-trinitrobenzene",28103,DTXSID1021405,CC(C)(C)c1c(c(C)c(c(C)c1[N+]([O-])=O)[N+]([O-])=O)[N+]([O-])=O,"InChI=1S/C12H15N3O6/c1-6-9(13(16)17)7(2)11(15(20)21)8(12(3,4)5)10(6)14(18)19/h1-5H3",XMWRWTSZNLOZFN-UHFFFAOYSA-N,?,,110.0,100777
100779,81-20-9,81-20-9,Cc1cccc(C)c1[N+]([O-])=O,"1,3-DIMETHYL-2-NITROBENZENE","1,3-Dimethyl-2-nitrobenzene","1,3-dimethyl-2-nitrobenzene",28105,DTXSID7025134,Cc1cccc(C)c1[N+]([O-])=O,"InChI=1S/C8H9NO2/c1-6-4-3-5-7(2)8(6)9(10)11/h3-5H,1-2H3",HDFQKJQEWGVKCQ-UHFFFAOYSA-N,?,,15.0,100779
100780,81-23-2,81-23-2,C[C@H](CCC(O)=O)[C@H]1CC[C@H]2[C@H]3[C@H](CC(=O)[C@@]21C)[C@@]1(C)CCC(=O)C[C@H]1CC3=O,DEHYDROCHOLIC ACID,Dehydrocholic acid,"(5beta)-3,7,12-trioxocholan-24-oic acid",28106,DTXSID2022888,CC(CCC(O)=O)C1CCC2C3C(CC(=O)C21C)C1(C)CCC(=O)CC1CC3=O,"InChI=1S/C24H34O5/c1-13(4-7-21(28)29)16-5-6-17-22-18(12-20(27)24(16,17)3)23(2)9-8-15(25)10-14(23)11-19(22)26/h13-14,16-18,22H,4-12H2,1-3H3,(H,28,29)",OHXPGWPVLFPUSM-UHFFFAOYSA-N,?,,237.0,100780
100781,81-25-4,81-25-4,C[C@H](CCC(O)=O)[C@H]1CC[C@H]2[C@H]3[C@H](C[C@H](O)[C@@]21C)[C@@]1(C)CC[C@@H](O)C[C@H]1C[C@H]3O,CHOLIC ACID,Cholic acid,"(3alpha,5beta,7alpha,8xi,12alpha)-3,7,12-trihydroxycholan-24-oic acid",28107,DTXSID6040660,CC(CCC(O)=O)C1CCC2C3C(CC(O)C21C)C1(C)CCC(O)CC1CC3O,"InChI=1S/C24H40O5/c1-13(4-7-21(28)29)16-5-6-17-22-18(12-20(27)24(16,17)3)23(2)9-8-15(25)10-14(23)11-19(22)26/h13-20,22,25-27H,4-12H2,1-3H3,(H,28,29)",BHQCQFFYRZLCQQ-UHFFFAOYSA-N,?,,198.0,100781
100783,81-54-9,81-54-9,Oc1cc(O)c(O)c2c1C(=O)c1ccccc1C2=O,PURPURIN,Purpurin,"1,2,4-trihydroxyanthracene-9,10-dione",28109,DTXSID4021214,Oc1cc(O)c(O)c2c1C(=O)c1ccccc1C2=O,"InChI=1S/C14H8O5/c15-8-5-9(16)14(19)11-10(8)12(17)6-3-1-2-4-7(6)13(11)18/h1-5,15-16,19H",BBNQQADTFFCFGB-UHFFFAOYSA-N,?,,259.0,100783
100785,81-64-1,81-64-1,Oc1ccc(O)c2c1C(=O)c1ccccc1C2=O,"1,4-DIHYDROXY-9,10-ANTHRACENEDIONE","1,4-Dihydroxyanthracene-9,10-dione","1,4-dihydroxyanthracene-9,10-dione",28110,DTXSID8044464,Oc1ccc(O)c2c1C(=O)c1ccccc1C2=O,"InChI=1S/C14H8O4/c15-9-5-6-10(16)12-11(9)13(17)7-3-1-2-4-8(7)14(12)18/h1-6,15-16H",GUEIZVNYDFNHJU-UHFFFAOYSA-N,?,,200.0,100785
100787,81-82-3,81-82-3,CC(=O)CC(C1=C(O)c2ccccc2OC1=O)c1ccc(Cl)cc1,COUMACHLOR,Coumachlor,3-[1-(4-chlorophenyl)-3-oxobutyl]-4-hydroxy-2H-chromen-2-one,28112,DTXSID8041797,CC(=O)CC(C1=C(O)c2ccccc2OC1=O)c1ccc(Cl)cc1,"InChI=1S/C19H15ClO4/c1-11(21)10-15(12-6-8-13(20)9-7-12)17-18(22)14-4-2-3-5-16(14)24-19(17)23/h2-9,15,22H,10H2,1H3",DEKWZWCFHUABHE-UHFFFAOYSA-N,?,,169.0,100787
100788,81-84-5,81-84-5,O=C1OC(=O)c2cccc3cccc1c32,"1,8-Naphthalic Anhydride","1H,3H-Naphtho(1,8-cd)pyran-1,3-dione","1H,3H-benzo[de]isochromene-1,3-dione",28113,DTXSID4026505,O=C1OC(=O)c2cccc3cccc1c32,InChI=1S/C12H6O3/c13-11-8-5-1-3-7-4-2-6-9(10(7)8)12(14)15-11/h1-6H,GRSMWKLPSNHDHA-UHFFFAOYSA-N,?,,270.0,100788
100789,81-88-9,81-88-9,[Cl-].CCN(CC)c1cc2[o+]c3cc(ccc3c(-c3ccccc3C(O)=O)c2cc1)N(CC)CC,RHODAMINE B,Rhodamine B,"9-(2-carboxyphenyl)-3,6-bis(diethylamino)xanthenium chloride",28114,DTXSID6042369,CCN(CC)c1cc2[o+]c3cc(ccc3c(-c3ccccc3C(O)=O)c2cc1)N(CC)CC,"InChI=1S/C28H30N2O3/c1-5-29(6-2)19-13-15-23-25(17-19)33-26-18-20(30(7-3)8-4)14-16-24(26)27(23)21-11-9-10-12-22(21)28(31)32/h9-18H,5-8H2,1-4H3/p+1",CVAVMIODJQHEEH-UHFFFAOYSA-O,[Cl-],18179,165.0,100789
100791,81-92-5,81-92-5,OCc1ccccc1C(c1ccc(O)cc1)c1ccc(O)cc1,PHENOLPHTHALOL,Egmol,4-[[2-(hydroxymethyl)phenyl]-(4-hydroxyphenyl)methyl]phenol,28116,DTXSID00230845,OCc1ccccc1C(c1ccc(O)cc1)c1ccc(O)cc1,"InChI=1S/C20H18O3/c21-13-16-3-1-2-4-19(16)20(14-5-9-17(22)10-6-14)15-7-11-18(23)12-8-15/h1-12,20-23H,13H2",CREICILGVGNQBH-UHFFFAOYSA-N,?,,201.5,100791
100792,82-05-3,82-05-3,O=C1c2cccc3cccc(c32)-c2ccccc21,BENZANTHRONE,Benz[de]anthracen-7-one,7H-benzo[de]anthracen-7-one,28117,DTXSID8052566,O=C1c2cccc3cccc(c32)-c2ccccc21,InChI=1S/C17H10O/c18-17-14-8-2-1-7-12(14)13-9-3-5-11-6-4-10-15(17)16(11)13/h1-10H,HUKPVYBUJRAUAG-UHFFFAOYSA-N,?,,170.0,100792
100793,82-08-6,82-08-6,CC(=O)c1c(O)c(Cc2c(O)c(c3OC(C)(C)C=Cc3c2O)C(=O)/C=C/c2ccccc2)c(O)c(C)c1O,Rottlerin,Rottlerin,"1-[6-[(3-acetyl-2,4,6-trihydroxy-5-methylphenyl)methyl]-5,7-dihydroxy-2,2-dimethylchromen-8-yl]-3-phenylprop-2-en-1-one",28118,DTXSID30231502,CC(=O)c1c(O)c(Cc2c(O)c(c3OC(C)(C)C=Cc3c2O)C(=O)C=Cc2ccccc2)c(O)c(C)c1O,"InChI=1S/C30H28O8/c1-15-24(33)19(27(36)22(16(2)31)25(15)34)14-20-26(35)18-12-13-30(3,4)38-29(18)23(28(20)37)21(32)11-10-17-8-6-5-7-9-17/h5-13,33-37H,14H2,1-4H3/b11-10+",DEZFNHCVIZBHBI-ZHACJKMWSA-N,?,,212.0,100793
100795,82-24-6,82-24-6,Nc1c2c(ccc1C(O)=O)C(=O)c1ccccc1C2=O,1-AMINOANTHRAQUINONE-2-CARBOXYLIC ACID,"2-Anthracenecarboxylic acid, 1-amino-9,10-dihydro-9,10-dioxo-","1-amino-9,10-dioxoanthracene-2-carboxylic acid",28120,DTXSID9058866,Nc1c2c(ccc1C(O)=O)C(=O)c1ccccc1C2=O,"InChI=1S/C15H9NO4/c16-12-10(15(19)20)6-5-9-11(12)14(18)8-4-2-1-3-7(8)13(9)17/h1-6H,16H2,(H,19,20)",MMKNBFSDCOALQO-UHFFFAOYSA-N,?,,295.5,100795
100796,82-28-0,82-28-0,Cc1ccc2c(c1N)C(=O)c1ccccc1C2=O,"1-AMINO-2-METHYL-9,10-ANTHRACENEDIONE",1-Amino-2-methylanthraquinone,"1-amino-2-methylanthracene-9,10-dione",28121,DTXSID7020057,Cc1ccc2c(c1N)C(=O)c1ccccc1C2=O,"InChI=1S/C15H11NO2/c1-8-6-7-11-12(13(8)16)15(18)10-5-3-2-4-9(10)14(11)17/h2-7H,16H2,1H3",ZLCUIOWQYBYEBG-UHFFFAOYSA-N,?,,205.5,100796
100797,82-33-7,82-33-7,Nc1ccc(N)c2c1C(=O)c1c(cccc1[N+]([O-])=O)C2=O,C.I. DISPERSE VIOLET 8,"9,10-Anthracenedione, 1,4-diamino-5-nitro-","1,4-diamino-5-nitroanthracene-9,10-dione",28122,DTXSID9058868,Nc1ccc(N)c2c1C(=O)c1c(cccc1[N+]([O-])=O)C2=O,"InChI=1S/C14H9N3O4/c15-7-4-5-8(16)12-11(7)13(18)6-2-1-3-9(17(20)21)10(6)14(12)19/h1-5H,15-16H2",SDICTISQCKLMEB-UHFFFAOYSA-N,?,,257.0,100797
100799,82-35-9,82-35-9,[O-][N+](=O)c1cccc2c1C(=O)c1cccc(c1C2=O)[N+]([O-])=O,"9,10-Anthracenedione, 1,5-dinitro-","9,10-Anthracenedione, 1,5-dinitro-","1,5-dinitroanthracene-9,10-dione",28124,DTXSID4058869,[O-][N+](=O)c1cccc2c1C(=O)c1cccc(c1C2=O)[N+]([O-])=O,InChI=1S/C14H6N2O6/c17-13-7-3-1-5-9(15(19)20)11(7)14(18)8-4-2-6-10(12(8)13)16(21)22/h1-6H,XVMVHWDCRFNPQR-UHFFFAOYSA-N,?,,385.0,100799
100801,82-40-6,82-40-6,CC(C)[C@H]1CC2=C(O1)N(C)c1c(cccc1C2=O)OC,Lunacrine,,,28125,DTXSID30878032,CC(C)C1CC2=C(O1)N(C)c1c(cccc1C2=O)OC,"InChI=1S/C16H19NO3/c1-9(2)13-8-11-15(18)10-6-5-7-12(19-4)14(10)17(3)16(11)20-13/h5-7,9,13H,8H2,1-4H3",FMEKJMQGMONLTQ-UHFFFAOYSA-N,?,,119.0,100801
100802,82-44-0,82-44-0,O=C1c2cccc(Cl)c2C(=O)c2ccccc12,1-CHLOROANTHRAQUINONE,1-Chloroanthraquinone,"1-chloro-9,10-anthraquinone",28126,DTXSID7052571,O=C1c2cccc(Cl)c2C(=O)c2ccccc12,InChI=1S/C14H7ClO2/c15-11-7-3-6-10-12(11)14(17)9-5-2-1-4-8(9)13(10)16/h1-7H,BOCJQSFSGAZAPQ-UHFFFAOYSA-N,?,,163.0,100802
100804,82-57-5,82-57-5,CC1=CC(=O)c2c(OC)c3ccoc3cc2O1,Visnagin,Visnagin,"4-methoxy-7-methylpyrano[3,2-f][1]benzoxol-5-one",28128,DTXSID50231509,CC1=CC(=O)c2c(OC)c3ccoc3cc2O1,"InChI=1S/C13H10O4/c1-7-5-9(14)12-11(17-7)6-10-8(3-4-16-10)13(12)15-2/h3-6H,1-2H3",NZVQLVGOZRELTG-UHFFFAOYSA-N,?,,144.5,100804
100805,82-58-6,NOCAS_861649,CN1C[C@@H](C=C2[C@H]1Cc1c[nH]c3cccc2c13)C(O)=O,Lysergic Acid,,,28129,DTXSID10861649,CN1CC(C=C2C1Cc1c[nH]c3cccc2c13)C(O)=O,"InChI=1S/C16H16N2O2/c1-18-8-10(16(19)20)5-12-11-3-2-4-13-15(11)9(7-17-13)6-14(12)18/h2-5,7,10,14,17H,6,8H2,1H3,(H,19,20)",ZAGRKAFMISFKIO-UHFFFAOYSA-N,?,,240.0,100805
100806,82-62-2,82-62-2,[O-][N+](=O)c1c(O)c(Cl)cc(Cl)c1Cl,"3,4,6-TRICHLORO-2-NITROPHENOL","3,4,6-Trichloro-2-nitrophenol","3,4,6-trichloro-2-nitrophenol",28130,DTXSID0026206,[O-][N+](=O)c1c(O)c(Cl)cc(Cl)c1Cl,"InChI=1S/C6H2Cl3NO3/c7-2-1-3(8)6(11)5(4(2)9)10(12)13/h1,11H",XWLBYVXDCGYXGY-UHFFFAOYSA-N,?,,92.5,100806
100808,82-68-8,82-68-8,[O-][N+](=O)c1c(Cl)c(Cl)c(Cl)c(Cl)c1Cl,PENTACHLORONITROBENZENE,Pentachloronitrobenzene,"1,2,3,4,5-pentachloro-6-nitrobenzene",28132,DTXSID2021105,[O-][N+](=O)c1c(Cl)c(Cl)c(Cl)c(Cl)c1Cl,InChI=1S/C6Cl5NO2/c7-1-2(8)4(10)6(12(13)14)5(11)3(1)9,LKPLKUMXSAEKID-UHFFFAOYSA-N,?,,144.0,100808
100809,82-71-3,82-71-3,[O-][N+](=O)c1c(O)c(cc(c1O)[N+]([O-])=O)[N+]([O-])=O,"2,4,6-TRINITRORESORCINOL","1,3-Benzenediol, 2,4,6-trinitro-","2,4,6-trinitrobenzene-1,3-diol",28133,DTXSID7058880,[O-][N+](=O)c1c(O)c(cc(c1O)[N+]([O-])=O)[N+]([O-])=O,"InChI=1S/C6H3N3O8/c10-5-2(7(12)13)1-3(8(14)15)6(11)4(5)9(16)17/h1,10-11H",IXHMHWIBCIYOAZ-UHFFFAOYSA-N,?,,175.5,100809
100810,82-82-6,NOCAS_861650,Cc1[n]cc(CO)c(C(O)=O)c1O,4-Pyridoxic Acid,,,28134,DTXSID20861650,Cc1[n]cc(CO)c(C(O)=O)c1O,"InChI=1S/C8H9NO4/c1-4-7(11)6(8(12)13)5(3-10)2-9-4/h2,10-11H,3H2,1H3,(H,12,13)",HXACOUQIXZGNBF-UHFFFAOYSA-N,?,,247.5,100810
100812,82-88-2,82-88-2,CN1CC2C(c3ccccc3C=2CC1)c1ccccc1,Phenindamine,Phenindamine,"2-methyl-9-phenyl-2,3,4,9-tetrahydro-1H-indeno[2,1-c]pyridine",28136,DTXSID0023452,CN1CC2C(c3ccccc3C=2CC1)c1ccccc1,"InChI=1S/C19H19N/c1-20-12-11-16-15-9-5-6-10-17(15)19(18(16)13-20)14-7-3-2-4-8-14/h2-10,19H,11-13H2,1H3",ISFHAYSTHMVOJR-UHFFFAOYSA-N,?,,91.0,100812
100813,82-92-8,82-92-8,CN1CCN(CC1)C(c1ccccc1)c1ccccc1,CYCLIZINE,Cyclizine,1-(diphenylmethyl)-4-methylpiperazine,28137,DTXSID4022864,CN1CCN(CC1)C(c1ccccc1)c1ccccc1,"InChI=1S/C18H22N2/c1-19-12-14-20(15-13-19)18(16-8-4-2-5-9-16)17-10-6-3-7-11-17/h2-11,18H,12-15H2,1H3",UVKZSORBKUEBAZ-UHFFFAOYSA-N,?,,105.5,100813
100814,83-01-2,83-01-2,O=C(Cl)N(c1ccccc1)c1ccccc1,Diphenylcarbamyl chloride,"Carbamic chloride, diphenyl-","N,N-di(phenyl)carbamoyl chloride",28138,DTXSID2058885,O=C(Cl)N(c1ccccc1)c1ccccc1,InChI=1S/C13H10ClNO/c14-13(16)15(11-7-3-1-4-8-11)12-9-5-2-6-10-12/h1-10H,XNBKKRFABABBPM-UHFFFAOYSA-N,?,,83.0,100814
100816,83-07-8,83-07-8,CN1C(C)=C(N)C(=O)N1c1ccccc1,Ampyrone,Ampyrone,"4-amino-1,5-dimethyl-2-phenyl-1,2-dihydro-3H-pyrazol-3-one",28140,DTXSID8048860,CN1C(C)=C(N)C(=O)N1c1ccccc1,"InChI=1S/C11H13N3O/c1-8-10(12)11(15)14(13(8)2)9-6-4-3-5-7-9/h3-7H,12H2,1-2H3",RLFWWDJHLFCNIJ-UHFFFAOYSA-N,?,,109.0,100816
100817,83-12-5,83-12-5,O=C1C(c2ccccc2)C(=O)c2ccccc12,"2-PHENYL-1H-INDENE-1,3(2H)-DIONE",Phenindione,"2-phenyl-1H-indene-1,3(2H)-dione",28141,DTXSID5023453,O=C1C(c2ccccc2)C(=O)c2ccccc12,"InChI=1S/C15H10O2/c16-14-11-8-4-5-9-12(11)15(17)13(14)10-6-2-1-3-7-10/h1-9,13H",NFBAXHOPROOJAW-UHFFFAOYSA-N,?,,150.0,100817
100818,83-13-6,83-13-6,CCOC(=O)C(c1ccccc1)C(=O)OCC,"Propanedioic acid, phenyl-, diethyl ester","Propanedioic acid, phenyl-, diethyl ester",diethyl 2-phenylpropanedioate,28142,DTXSID7058886,CCOC(=O)C(c1ccccc1)C(=O)OCC,"InChI=1S/C13H16O4/c1-3-16-12(14)11(13(15)17-4-2)10-8-6-5-7-9-10/h5-9,11H,3-4H2,1-2H3",FGYDHYCFHBSNPE-UHFFFAOYSA-N,?,,16.5,100818
100820,83-25-0,83-25-0,O=C1CCC(=O)N1c1ccccc1,N-PHENYLSUCCINIMIDE,Succinanil,"1-phenylpyrrolidine-2,5-dione",28144,DTXSID60232108,O=C1CCC(=O)N1c1ccccc1,"InChI=1S/C10H9NO2/c12-9-6-7-10(13)11(9)8-4-2-1-3-5-8/h1-5H,6-7H2",ZTUKZULGOCFJET-UHFFFAOYSA-N,?,,156.0,100820
100821,83-26-1,83-26-1,CC(C)(C)C(=O)C1C(=O)c2ccccc2C1=O,PINDONE,Pindone,"2-(2,2-dimethylpropanoyl)-1H-indene-1,3(2H)-dione",28145,DTXSID1025930,CC(C)(C)C(=O)C1C(=O)c2ccccc2C1=O,"InChI=1S/C14H14O3/c1-14(2,3)13(17)10-11(15)8-6-4-5-7-9(8)12(10)16/h4-7,10H,1-3H3",RZKYEQDPDZUERB-UHFFFAOYSA-N,?,,109.0,100821
100822,83-28-3,83-28-3,CC(C)CC(=O)C1C(=O)c2ccccc2C1=O,VALONE,"2-Isovaleryl-1,3-indanedione","2-(3-methylbutanoyl)-1H-indene-1,3(2H)-dione",28146,DTXSID8042509,CC(C)CC(=O)C1C(=O)c2ccccc2C1=O,"InChI=1S/C14H14O3/c1-8(2)7-11(15)12-13(16)9-5-3-4-6-10(9)14(12)17/h3-6,8,12H,7H2,1-2H3",PVWMAOPFDINGAY-UHFFFAOYSA-N,?,,68.5,100822
100824,83-33-0,83-33-0,O=C1CCc2ccccc21,"1H-Inden-1-one, 2,3-dihydro-","1H-Inden-1-one, 2,3-dihydro-","2,3-dihydroinden-1-one",28148,DTXSID1058892,O=C1CCc2ccccc21,"InChI=1S/C9H8O/c10-9-6-5-7-3-1-2-4-8(7)9/h1-4H,5-6H2",QNXSIUBBGPHDDE-UHFFFAOYSA-N,?,,42.0,100824
100825,83-34-1,83-34-1,Cc1c[nH]c2ccccc21,3-METHYLINDOLE,3-Methylindole,3-methyl-1H-indole,28149,DTXSID8021775,Cc1c[nH]c2ccccc21,"InChI=1S/C9H9N/c1-7-6-10-9-5-3-2-4-8(7)9/h2-6,10H,1H3",ZFRKQXVRDFCRJG-UHFFFAOYSA-N,?,,97.5,100825
100826,83-38-5,83-38-5,O=Cc1c(Cl)cccc1Cl,"2,6-Dichlorobenzaldehyde","2,6-Dichlorobenzaldehyde","2,6-dichlorobenzaldehyde",28150,DTXSID5024970,O=Cc1c(Cl)cccc1Cl,InChI=1S/C7H4Cl2O/c8-6-2-1-3-7(9)5(6)4-10/h1-4H,DMIYKWPEFRFTPY-UHFFFAOYSA-N,?,,71.5,100826
100828,83-41-0,83-41-0,Cc1cccc(c1C)[N+]([O-])=O,"1,2-DIMETHYL-3-NITROBENZENE","1,2-Dimethyl-3-nitrobenzene","1,2-dimethyl-3-nitrobenzene",28152,DTXSID7025132,Cc1cccc(c1C)[N+]([O-])=O,"InChI=1S/C8H9NO2/c1-6-4-3-5-8(7(6)2)9(10)11/h3-5H,1-2H3",FVHAWXWFPBPFOS-UHFFFAOYSA-N,?,,15.0,100828
100829,83-42-1,83-42-1,Cc1c(Cl)cccc1[N+]([O-])=O,"BENZENE, 1-CHLORO-2-METHYL-3-NITRO-",1-Chloro-2-methyl-3-nitrobenzene,1-chloro-2-methyl-3-nitrobenzene,28153,DTXSID1041263,Cc1c(Cl)cccc1[N+]([O-])=O,"InChI=1S/C7H6ClNO2/c1-5-6(8)3-2-4-7(5)9(10)11/h2-4H,1H3",XCSNRORTQRKCHB-UHFFFAOYSA-N,?,,37.8,100829
100830,83-43-2,83-43-2,C[C@H]1C[C@@H]2[C@H]([C@@H](O)C[C@@]3(C)[C@H]2CC[C@]3(O)C(=O)CO)[C@@]2(C)C=CC(=O)C=C21,Methylprednisolone,Methylprednisolone,"(6alpha,11beta)-11,17,21-trihydroxy-6-methylpregna-1,4-diene-3,20-dione",28154,DTXSID7023300,CC1CC2C(C(O)CC3(C)C2CCC3(O)C(=O)CO)C2(C)C=CC(=O)C=C21,"InChI=1S/C22H30O5/c1-12-8-14-15-5-7-22(27,18(26)11-23)21(15,3)10-17(25)19(14)20(2)6-4-13(24)9-16(12)20/h4,6,9,12,14-15,17,19,23,25,27H,5,7-8,10-11H2,1-3H3",VHRSUDSXCMQTMA-UHFFFAOYSA-N,?,,232.5,100830
100833,83-46-5|83-47-6,83-46-5,CC(C)[C@@H](CC[C@@H](C)[C@H]1CC[C@H]2[C@@H]3CC=C4C[C@@H](O)CC[C@]4(C)[C@H]3CC[C@]12C)CC,"STIGMAST-5-EN-3-OL, (3.BETA.)-, gamma-Sitosterol",beta-Sitosterol,(3beta)-stigmast-5-en-3-ol,28156|28157,DTXSID5022481,CC(C)C(CCC(C)C1CCC2C3CC=C4CC(O)CCC4(C)C3CCC12C)CC,"InChI=1S/C29H50O/c1-7-21(19(2)3)9-8-20(4)25-12-13-26-24-11-10-22-18-23(30)14-16-28(22,5)27(24)15-17-29(25,26)6/h10,19-21,23-27,30H,7-9,11-18H2,1-6H3",KZJWDPNRJALLNS-UHFFFAOYSA-N,?,,143.5,100833
100837,83-53-4,83-53-4,Brc1ccc(Br)c2ccccc12,"Naphthalene, 1,4-dibromo-","Naphthalene, 1,4-dibromo-","1,4-Dibromonaphthalene",28158,DTXSID6058893,Brc1ccc(Br)c2ccccc12,InChI=1S/C10H6Br2/c11-9-5-6-10(12)8-4-2-1-3-7(8)9/h1-6H,IBGUDZMIAZLJNY-UHFFFAOYSA-N,?,,83.0,100837
100838,83-54-5,83-54-5,CN1C=CC(=O)c2ccccc12,"4(1H)-Quinolinone, 1-methyl-",Echinopsine,1-methylquinolin-4-one,28159,DTXSID30232110,CN1C=CC(=O)c2ccccc12,"InChI=1S/C10H9NO/c1-11-7-6-10(12)8-4-2-3-5-9(8)11/h2-7H,1H3",CSJAXRKDCCWCSJ-UHFFFAOYSA-N,?,,152.0,100838
100840,83-60-3,83-60-3,CO[C@@H]1[C@H]([C@H]2C[C@@H]3c4[nH]c5cc(ccc5c4CCN3C[C@H]2C[C@H]1O)OC)C(O)=O,Reserpic Acid,Reserpic acid,,28161,DTXSID50232112,COC1C(C2CC3c4[nH]c5cc(ccc5c4CCN3CC2CC1O)OC)C(O)=O,"InChI=1S/C22H28N2O5/c1-28-12-3-4-13-14-5-6-24-10-11-7-18(25)21(29-2)19(22(26)27)15(11)9-17(24)20(14)23-16(13)8-12/h3-4,8,11,15,17-19,21,23,25H,5-7,9-10H2,1-2H3,(H,26,27)",JVHNBFFHWQQPLL-UHFFFAOYSA-N,?,,242.0,100840
100841,83-63-6,83-63-6,Cc1ccccc1/N=N/c1cc(C)c(cc1)N(C(C)=O)C(C)=O,Diacetazotol,,,28162,DTXSID70878298,Cc1ccccc1N=Nc1cc(C)c(cc1)N(C(C)=O)C(C)=O,"InChI=1S/C18H19N3O2/c1-12-7-5-6-8-17(12)20-19-16-9-10-18(13(2)11-16)21(14(3)22)15(4)23/h5-11H,1-4H3/b20-19+",YIEDSISPYKQADU-FMQUCBEESA-N,?,,75.0,100841
100842,83-66-9,83-66-9,Cc1c(cc(c(OC)c1[N+]([O-])=O)C(C)(C)C)[N+]([O-])=O,"Benzene, 1-(1,1-dimethylethyl)-2-methoxy-4-methy",Musk ambrette,"1-tert-butyl-2-methoxy-4-methyl-3,5-dinitrobenzene",28163,DTXSID7025689,Cc1c(cc(c(OC)c1[N+]([O-])=O)C(C)(C)C)[N+]([O-])=O,"InChI=1S/C12H16N2O5/c1-7-9(13(15)16)6-8(12(2,3)4)11(19-5)10(7)14(17)18/h6H,1-5H3",SUAUILGSCPYJCS-UHFFFAOYSA-N,?,,85.0,100842
100844,83-73-8,83-73-8,Oc1c2[n]cccc2c(I)cc1I,"8-Quinolinol, 5,7-diiodo-",Iodoquinol,"5,7-diiodoquinolin-8-ol",28165,DTXSID6023155,Oc1c2[n]cccc2c(I)cc1I,"InChI=1S/C9H5I2NO/c10-6-4-7(11)9(13)8-5(6)2-1-3-12-8/h1-4,13H",UXZFQZANDVDGMM-UHFFFAOYSA-N,?,,210.0,100844
100846,83-79-4,83-79-4,CC(=C)[C@H]1Cc2c3O[C@@H]4COc5cc(OC)c(cc5[C@@H]4C(=O)c3ccc2O1)OC,ROTENONE,Rotenone,"(2R,6aS,12aS)-8,9-dimethoxy-2-(prop-1-en-2-yl)-1,2,12,12a-tetrahydrochromeno[3,4-b]furo[2,3-h]chromen-6(6aH)-one",28166,DTXSID6021248,CC(=C)C1Cc2c3OC4COc5cc(OC)c(cc5C4C(=O)c3ccc2O1)OC,"InChI=1S/C23H22O6/c1-11(2)16-8-14-15(28-16)6-5-12-22(24)21-13-7-18(25-3)19(26-4)9-17(13)27-10-20(21)29-23(12)14/h5-7,9,16,20-21H,1,8,10H2,2-4H3",JUVIOZPCNVVQFO-UHFFFAOYSA-N,?,,176.0,100846
100847,83-81-8,83-81-8,CCN(CC)C(=O)c1ccccc1C(=O)N(CC)CC,"1,2-Benzenedicarboxamide, N,N,N',N'-tetraethyl-","1,2-Benzenedicarboxamide, N,N,N',N'-tetraethyl-","N,N,N',N'-tetraethylbenzene-1,2-dicarboxamide",28167,DTXSID6058899,CCN(CC)C(=O)c1ccccc1C(=O)N(CC)CC,"InChI=1S/C16H24N2O2/c1-5-17(6-2)15(19)13-11-9-10-12-14(13)16(20)18(7-3)8-4/h9-12H,5-8H2,1-4H3",OPTBBAGXQYOFTL-UHFFFAOYSA-N,?,,36.0,100847
100849,83-94-3,83-94-3,CC[C@H]1C[C@@H]2C[C@@H]3[C@H]1[N@](C2)CCc1c3[nH]c2cc(ccc12)OC,Tabernanthine,,,28169,DTXSID50878514,CCC1CC2CC3C1N(C2)CCc1c3[nH]c2cc(ccc12)OC,"InChI=1S/C20H26N2O/c1-3-13-8-12-9-17-19-16(6-7-22(11-12)20(13)17)15-5-4-14(23-2)10-18(15)21-19/h4-5,10,12-13,17,20-21H,3,6-9,11H2,1-2H3",UCIDWKVIQZIKEK-UHFFFAOYSA-N,?,,214.0,100849
100850,83-95-4,83-95-4,COc1c2[n]c3occc3c(OC)c2ccc1OC,"FURO[2,3-B]QUINOLINE, 4,7,8-TRIMETHOXY-",Skimmianine,"4,7,8-trimethoxyfuro[2,3-b]quinoline",28170,DTXSID90232116,COc1c2[n]c3occc3c(OC)c2ccc1OC,"InChI=1S/C14H13NO4/c1-16-10-5-4-8-11(13(10)18-3)15-14-9(6-7-19-14)12(8)17-2/h4-7H,1-3H3",SLSIBLKBHNKZTB-UHFFFAOYSA-N,?,,177.0,100850
100852,84-04-8,84-04-8,NC(=O)C1CCN(CCCN2c3ccccc3Sc3ccc(Cl)cc23)CC1,PIPAMAZINE,Pipamazine,1-[3-(2-chloro-10H-phenothiazin-10-yl)propyl]piperidine-4-carboxamide,28171,DTXSID3023477,NC(=O)C1CCN(CCCN2c3ccccc3Sc3ccc(Cl)cc23)CC1,"InChI=1S/C21H24ClN3OS/c22-16-6-7-20-18(14-16)25(17-4-1-2-5-19(17)27-20)11-3-10-24-12-8-15(9-13-24)21(23)26/h1-2,4-7,14-15H,3,8-13H2,(H2,23,26)",OSJJYEUEJRVVOD-UHFFFAOYSA-N,?,,139.0,100852
100854,84-15-1,84-15-1,c1ccccc1-c1ccccc1-c1ccccc1,O-TERPHENYL,o-Terphenyl,"1,1':2',1''-terphenyl",28173,DTXSID1049697,c1ccccc1-c1ccccc1-c1ccccc1,InChI=1S/C18H14/c1-3-9-15(10-4-1)17-13-7-8-14-18(17)16-11-5-2-6-12-16/h1-14H,OIAQMFOKAXHPNH-UHFFFAOYSA-N,?,,56.2,100854
100855,84-16-2,84-16-2,CC[C@H]([C@H](CC)c1ccc(O)cc1)c1ccc(O)cc1,Hexestrol,meso-Hexestrol,"4-[(3R,4S)-4-(4-hydroxyphenyl)hexan-3-yl]phenol",28174,DTXSID2022381,CCC(C(CC)c1ccc(O)cc1)c1ccc(O)cc1,"InChI=1S/C18H22O2/c1-3-17(13-5-9-15(19)10-6-13)18(4-2)14-7-11-16(20)12-8-14/h5-12,17-20H,3-4H2,1-2H3",PBBGSZCBWVPOOL-UHFFFAOYSA-N,?,,186.5,100855