ChemID,source_casrn,CAS,SMILES,NAME,preferred_name,iupac,MPID,dsstox_substance_id,Canonical_QSARr,InChI_Code_QSARr,InChI Key_QSARr,Salt_Solvent,Salt_Solvent_ID,MP,ID
106865,2422-79-9,2422-79-9,Cc1c2c3ccccc3ccc2cc2ccccc21,12-METHYLBENZ(A)ANTHRACENE,12-Methylbenz[a]anthrancene,12-methylbenzo[a]anthracene,33652,DTXSID2074829,Cc1c2c3ccccc3ccc2cc2ccccc21,"InChI=1S/C19H14/c1-13-17-8-4-3-7-15(17)12-16-11-10-14-6-2-5-9-18(14)19(13)16/h2-12H,1H3",ACYOLKMEHHTLAB-UHFFFAOYSA-N,?,,138.0,106865
106869,2425-54-9,2425-54-9,CCCCCCCCCCCCCCCl,1-CHLOROTETRADECANE,1-Chlorotetradecane,1-chlorotetradecane,33656,DTXSID1027471,CCCCCCCCCCCCCCCl,"InChI=1S/C14H29Cl/c1-2-3-4-5-6-7-8-9-10-11-12-13-14-15/h2-14H2,1H3",RNHWYOLIEJIAMV-UHFFFAOYSA-N,?,,4.9,106869
106873,2430-00-4,2430-00-4,CCN(CC)C(=O)C(Cl)(Cl)Cl,"2,2,2-Trichloro-N,N-diethyl-acetamide","Acetamide, N,N-diethyl-2,2,2-trichloro-","2,2,2-trichloro-N,N-diethylacetamide",33660,DTXSID90179032,CCN(CC)C(=O)C(Cl)(Cl)Cl,"InChI=1S/C6H10Cl3NO/c1-3-10(4-2)5(11)6(7,8)9/h3-4H2,1-2H3",OIWFZENWZGPLQZ-UHFFFAOYSA-N,?,,27.0,106873
106877,2432-12-4,2432-12-4,Cc1cc(Cl)c(O)c(Cl)c1,"4-METHYL-2,6-DICHLOROPHENOL","2,6-Dichloro-4-methylphenol","2,6-Dichloro-4-methylphenol",33664,DTXSID1062415,Cc1cc(Cl)c(O)c(Cl)c1,"InChI=1S/C7H6Cl2O/c1-4-2-5(8)7(10)6(9)3-4/h2-3,10H,1H3",YXEOEPYIBGTLML-UHFFFAOYSA-N,?,,39.0,106877
106881,2436-92-2,2436-92-2,Cc1c[n]c2ccccc2c1C,"3,4-DIMETHYLQUINOLINE","3,4-Dimethylquinoline","3,4-DIMETHYLQUINOLINE",33668,DTXSID80179102,Cc1c[n]c2ccccc2c1C,"InChI=1S/C11H11N/c1-8-7-12-11-6-4-3-5-10(11)9(8)2/h3-7H,1-2H3",QOSYOGXDDHFINM-UHFFFAOYSA-N,?,,73.5,106881
106886,2437-56-1,2437-56-1,CCCCCCCCCCCC=C,1-TRIDECENE,1-Tridecene,tridec-1-ene,33672,DTXSID3029235,CCCCCCCCCCCC=C,"InChI=1S/C13H26/c1-3-5-7-9-11-13-12-10-8-6-4-2/h3H,1,4-13H2,2H3",VQOXUMQBYILCKR-UHFFFAOYSA-N,?,,-13.0,106886
106891,2438-05-3,2438-05-3,CCCc1ccc(cc1)C(O)=O,4-PROPYLBENZOIC ACID,4-Propylbenzoic acid,4-propylbenzoic acid,33677,DTXSID5046564,CCCc1ccc(cc1)C(O)=O,"InChI=1S/C10H12O2/c1-2-3-8-4-6-9(7-5-8)10(11)12/h4-7H,2-3H2,1H3,(H,11,12)",ATZHGRNFEFVDDJ-UHFFFAOYSA-N,?,,143.0,106891
106896,2439-01-2,2439-01-2,Cc1cc2[n]c3SC(=O)Sc3[n]c2cc1,OXYTHIOQUINOX,Chinomethionate,"6-methyl[1,3]dithiolo[4,5-b]quinoxalin-2-one",33682,DTXSID2032342,Cc1cc2[n]c3SC(=O)Sc3[n]c2cc1,"InChI=1S/C10H6N2OS2/c1-5-2-3-6-7(4-5)12-9-8(11-6)14-10(13)15-9/h2-4H,1H3",FBQQHUGEACOBDN-UHFFFAOYSA-N,?,,170.0,106896
106900,2443-58-5,2443-58-5,Oc1cc2Cc3ccccc3-c2cc1,2-Hydroxyfluorene,2-Hydroxyfluorene,9H-fluoren-2-ol,33686,DTXSID2047569,Oc1cc2Cc3ccccc3-c2cc1,"InChI=1S/C13H10O/c14-11-5-6-13-10(8-11)7-9-3-1-2-4-12(9)13/h1-6,8,14H,7H2",ZDOIAPGLORMKTR-UHFFFAOYSA-N,?,,168.0,106900
106904,2445-83-2,2445-83-2,Cc1cc2OC(=O)C=Cc2cc1,"2H-1-Benzopyran-2-one, 7-methyl-","2H-1-Benzopyran-2-one, 7-methyl-",7-methylchromen-2-one,33690,DTXSID0062424,Cc1cc2OC(=O)C=Cc2cc1,"InChI=1S/C10H8O2/c1-7-2-3-8-4-5-10(11)12-9(8)6-7/h2-6H,1H3",DLHXRDUXNVEIEY-UHFFFAOYSA-N,?,,128.0,106904
106910,2457-47-8,2457-47-8,Clc1c[n]cc(Cl)c1,"3,5-DICHLOROPYRIDINE","Pyridine, 3,5-dichloro-","3,5-Dichloropyridine",33694,DTXSID60179307,Clc1c[n]cc(Cl)c1,InChI=1S/C5H3Cl2N/c6-4-1-5(7)3-8-2-4/h1-3H,WPGHPGAUFIJVJF-UHFFFAOYSA-N,?,,66.0,106910
106914,2459-24-7,28804-90-2,COC(=O)c1cccc2ccccc21,"1-NAPHTHALENECARBOXYLIC ACID, METHYL ESTER",Methyl naphthoate,methyl naphthalene-1-carboxylate,33698,DTXSID00182996,COC(=O)c1cccc2ccccc21,"InChI=1S/C12H10O2/c1-14-12(13)11-8-4-6-9-5-2-3-7-10(9)11/h2-8H,1H3",HMRROBKAACRWBP-UHFFFAOYSA-N,?,,59.5,106914
106920,2466-76-4,2466-76-4,CC(=O)[n]1c[n]cc1,"1H-IMIDAZOLE, 1-ACETYL-","1H-Imidazole, 1-acetyl-",1-imidazol-1-ylethanone,33703,DTXSID8062440,CC(=O)[n]1c[n]cc1,"InChI=1S/C5H6N2O/c1-5(8)7-3-2-6-4-7/h2-4H,1H3",VIHYIVKEECZGOU-UHFFFAOYSA-N,?,,102.0,106920
106924,2475-45-8,2475-45-8,Nc1ccc(N)c2c1C(=O)c1c(C2=O)c(N)ccc1N,"1,4,5,8-TETRAAMINOANTHRAQUINONE",C.I. Disperse Blue 1,"1,4,5,8-tetraaminoanthracene-9,10-dione",33707,DTXSID7020188,Nc1ccc(N)c2c1C(=O)c1c(C2=O)c(N)ccc1N,"InChI=1S/C14H12N4O2/c15-5-1-2-6(16)10-9(5)13(19)11-7(17)3-4-8(18)12(11)14(10)20/h1-4H,15-18H2",JSFUMBWFPQSADC-UHFFFAOYSA-N,?,,285.0,106924
106928,2486-07-9,2486-07-9,[O-][N+](=O)c1cc(ccc1Oc1ccccc1)[N+]([O-])=O,"2,4-Dinitrophenyl phenyl ether","Benzene, 2,4-dinitro-1-phenoxy-","2,4-dinitro-1-(phenoxy)benzene",33711,DTXSID20179560,[O-][N+](=O)c1cc(ccc1Oc1ccccc1)[N+]([O-])=O,InChI=1S/C12H8N2O5/c15-13(16)9-6-7-12(11(8-9)14(17)18)19-10-4-2-1-3-5-10/h1-8H,HQFCELSVOFCACS-UHFFFAOYSA-N,?,,71.0,106928
106932,2490-97-3,2490-97-3,CC(=O)NC(CCC(N)=O)C(O)=O,Aceglutamide,Nalpha-Acetyl-L-glutamine,N~2~-acetylglutamine,33715,DTXSID2048959,CC(=O)NC(CCC(N)=O)C(O)=O,"InChI=1S/C7H12N2O4/c1-4(10)9-5(7(12)13)2-3-6(8)11/h5H,2-3H2,1H3,(H2,8,11)(H,9,10)(H,12,13)",KSMRODHGGIIXDV-UHFFFAOYSA-N,?,,197.0,106932
106936,2498-66-0,2498-66-0,O=C1c2ccc3ccccc3c2C(=O)c2ccccc12,"BENZ A ANTHRACENE-7,12-DIONE","7,12-Benz(a)anthraquinone","tetraphene-7,12-dione",33719,DTXSID8051916,O=C1c2ccc3ccccc3c2C(=O)c2ccccc12,InChI=1S/C18H10O2/c19-17-13-7-3-4-8-14(13)18(20)16-12-6-2-1-5-11(12)9-10-15(16)17/h1-10H,LHMRXAIRPKSGDE-UHFFFAOYSA-N,?,,170.0,106936
106940,2508-29-4,2508-29-4,NCCCCCO,5-Aminopentanol,5-Aminopentan-1-ol,5-Aminopentan-1-ol,33723,DTXSID10179771,NCCCCCO,"InChI=1S/C5H13NO/c6-4-2-1-3-5-7/h7H,1-6H2",LQGKDMHENBFVRC-UHFFFAOYSA-N,?,,38.5,106940
106945,2523-37-7,2523-37-7,CC1c2ccccc2-c2ccccc21,9-METHYL-9H-FLUORENE,9-Methylfluorene,9-METHYL-9H-FLUORENE,33727,DTXSID5073957,CC1c2ccccc2-c2ccccc21,"InChI=1S/C14H12/c1-10-11-6-2-4-8-13(11)14-9-5-3-7-12(10)14/h2-10H,1H3",ZVEJRZRAUYJYCO-UHFFFAOYSA-N,?,,46.5,106945
106949,2529-45-5,2529-45-5,C[C@]12CCC(=O)C=C1CC[C@H]1[C@@H]3CC[C@](OC(C)=O)(C(C)=O)[C@@]3(C)C[C@H](O)[C@]21F,Flurogestone Acetate,Flurogestone acetate,"(11beta)-9-fluoro-11-hydroxy-3,20-dioxopregn-4-en-17-yl acetate",33731,DTXSID6046210,CC12CCC(=O)C=C1CCC1C3CCC(OC(C)=O)(C(C)=O)C3(C)CC(O)C21F,"InChI=1S/C23H31FO5/c1-13(25)22(29-14(2)26)10-8-17-18-6-5-15-11-16(27)7-9-20(15,3)23(18,24)19(28)12-21(17,22)4/h11,17-19,28H,5-10,12H2,1-4H3",JKQQZJHNUVDHKP-UHFFFAOYSA-N,?,,267.5,106949
106956,2541-69-7,2541-69-7,Cc1c2ccccc2cc2c1ccc1ccccc12,BENZ(A)ANTHRACENE-7-METHYL,7-Methylbenz(a)anthracene,7-methylbenzo[b]phenanthrene,33735,DTXSID40180072,Cc1c2ccccc2cc2c1ccc1ccccc12,"InChI=1S/C19H14/c1-13-16-8-4-3-7-15(16)12-19-17(13)11-10-14-6-2-5-9-18(14)19/h2-12H,1H3",DIIFUCUPDHMNIV-UHFFFAOYSA-N,?,,141.0,106956
106961,2553-04-0,2553-04-0,COc1ccccc1C(=O)c1ccccc1,"METHANONE, (2-METHOXYPHENYL)PHENYL-",2-Methoxybenzophenone,(2-methoxyphenyl)-phenylmethanone,33739,DTXSID70180227,COc1ccccc1C(=O)c1ccccc1,"InChI=1S/C14H12O2/c1-16-13-10-6-5-9-12(13)14(15)11-7-3-2-4-8-11/h2-10H,1H3",CSUUDNFYSFENAE-UHFFFAOYSA-N,?,,41.0,106961
106965,2570-26-5,2570-26-5,CCCCCCCCCCCCCCCN,PENTADECYLAMINE,Pentadecylamine,pentadecan-1-amine,33743,DTXSID8062529,CCCCCCCCCCCCCCCN,"InChI=1S/C15H33N/c1-2-3-4-5-6-7-8-9-10-11-12-13-14-15-16/h2-16H2,1H3",JPZYXGPCHFZBHO-UHFFFAOYSA-N,?,,37.3,106965
106969,2586-89-2,2586-89-2,CCCC#CCC,3-HEPTYNE,Hept-3-yne,Hept-3-yne,33747,DTXSID10180509,CCCC#CCC,"InChI=1S/C7H12/c1-3-5-7-6-4-2/h3-5H2,1-2H3",KLYHSJRCIZOUHE-UHFFFAOYSA-N,?,,-130.5,106969
106974,2597-03-7,2597-03-7,CCOC(=O)C(SP(=S)(OC)OC)c1ccccc1,FENTHOATE,Phenthoate,ethyl [(dimethoxyphosphorothioyl)sulfanyl](phenyl)acetate,33751,DTXSID6042280,CCOC(=O)C(SP(=S)(OC)OC)c1ccccc1,"InChI=1S/C12H17O4PS2/c1-4-16-12(13)11(10-8-6-5-7-9-10)19-17(18,14-2)15-3/h5-9,11H,4H2,1-3H3",XAMUDJHXFNRLCY-UHFFFAOYSA-N,?,,17.5,106974
106980,2613-72-1,2815-58-9,CC1CC(C)C(C)C1,"1,2,4-Trimethylcyclopentane",,,33756,DTXSID00870987,CC1CC(C)C(C)C1,"InChI=1S/C8H16/c1-6-4-7(2)8(3)5-6/h6-8H,4-5H2,1-3H3",PNUFYSGVPVMNRN-UHFFFAOYSA-N,?,,-132.3,106980
106985,2622-26-6,2622-26-6,N#Cc1cc2c(cc1)Sc1ccccc1N2CCCN1CCC(O)CC1,PERICYAZINE,Periciazine,10-[3-(4-hydroxypiperidin-1-yl)propyl]-10H-phenothiazine-2-carbonitrile,33760,DTXSID5045910,N#Cc1cc2c(cc1)Sc1ccccc1N2CCCN1CCC(O)CC1,"InChI=1S/C21H23N3OS/c22-15-16-6-7-21-19(14-16)24(18-4-1-2-5-20(18)26-21)11-3-10-23-12-8-17(25)9-13-23/h1-2,4-7,14,17,25H,3,8-13H2",LUALIOATIOESLM-UHFFFAOYSA-N,?,,116.5,106985
106989,2623-95-2,NOCAS_870989,CCCCCCCCC(Br)C(O)=O,"Decanoic acid, 2-bromo-",,,33764,DTXSID20870989,CCCCCCCCC(Br)C(O)=O,"InChI=1S/C10H19BrO2/c1-2-3-4-5-6-7-8-9(11)10(12)13/h9H,2-8H2,1H3,(H,12,13)",KNLOTZNPRIFUAR-UHFFFAOYSA-N,?,,4.0,106989
106994,2629-72-3,2629-72-3,OCCCc1cc[n]cc1,4-PYRIDINEPROPANOL,4-Pyridinepropanol,,33768,DTXSID9062564,OCCCc1cc[n]cc1,"InChI=1S/C8H11NO/c10-7-1-2-8-3-5-9-6-4-8/h3-6,10H,1-2,7H2",PZVZGDBCMQBRMA-UHFFFAOYSA-N,?,,37.0,106994
106998,2637-34-5,2637-34-5,Sc1cccc[n]1,2(1H)-PYRIDINETHIONE,2-Mercaptopyridine,,33772,DTXSID9062568,Sc1cccc[n]1,"InChI=1S/C5H5NS/c7-5-3-1-2-4-6-5/h1-4H,(H,6,7)",WHMDPDGBKYUEMW-UHFFFAOYSA-N,?,,129.0,106998
107002,2642-71-9,2642-71-9,CCOP(=S)(OCC)SCN1N=Nc2ccccc2C1=O,AZINPHOS ETHYL,Azinphos-ethyl,"O,O-diethyl S-[(4-oxo-1,2,3-benzotriazin-3(4H)-yl)methyl] phosphorodithioate",33776,DTXSID5037498,CCOP(=S)(OCC)SCN1N=Nc2ccccc2C1=O,"InChI=1S/C12H16N3O3PS2/c1-3-17-19(20,18-4-2)21-9-15-12(16)10-7-5-6-8-11(10)13-14-15/h5-8H,3-4,9H2,1-2H3",RQVGAIADHNPSME-UHFFFAOYSA-N,?,,53.0,107002
107006,2655-19-8,2655-19-8,CNC(=O)Oc1cc(cc(c1)C(C)(C)C)C(C)(C)C,"3,5-BIS(TERT-BUTYL)PHENOL METHYLCARBAMATE",Butacarb,"3,5-di-tert-butylphenyl methylcarbamate",33780,DTXSID0041690,CNC(=O)Oc1cc(cc(c1)C(C)(C)C)C(C)(C)C,"InChI=1S/C16H25NO2/c1-15(2,3)11-8-12(16(4,5)6)10-13(9-11)19-14(18)17-7/h8-10H,1-7H3,(H,17,18)",SLZWBCGZQRRUNG-UHFFFAOYSA-N,?,,103.0,107006
107010,2675-77-6,2675-77-6,COc1cc(Cl)c(cc1Cl)OC,"1,4-DICHLORO-2,5-DIMETHOXYBENZENE",Chloroneb,"1,4-dichloro-2,5-dimethoxybenzene",33784,DTXSID2024793,COc1cc(Cl)c(cc1Cl)OC,"InChI=1S/C8H8Cl2O2/c1-11-7-3-6(10)8(12-2)4-5(7)9/h3-4H,1-2H3",PFIADAMVCJPXSF-UHFFFAOYSA-N,?,,134.0,107010
107014,2688-77-9,2688-77-9,CN1CCc2cc(OC)c(cc2[C@@H]1Cc1cc(OC)c(cc1)OC)OC,Laudanosine,,,33788,DTXSID30878577,CN1CCc2cc(OC)c(cc2C1Cc1cc(OC)c(cc1)OC)OC,"InChI=1S/C21H27NO4/c1-22-9-8-15-12-20(25-4)21(26-5)13-16(15)17(22)10-14-6-7-18(23-2)19(11-14)24-3/h6-7,11-13,17H,8-10H2,1-5H3",KGPAYJZAMGEDIQ-UHFFFAOYSA-N,?,,89.0,107014
107018,2700-22-3,2700-22-3,N#CC(=Cc1ccccc1)C#N,"MALONONITRILE, BENZAL","Malononitrile, benzylidene-",2-(phenylmethylidene)propanedinitrile,33792,DTXSID10181490,N#CC(=Cc1ccccc1)C#N,InChI=1S/C10H6N2/c11-7-10(8-12)6-9-4-2-1-3-5-9/h1-6H,WAVNYPVYNSIHNC-UHFFFAOYSA-N,?,,84.0,107018
107023,2738-19-4,2738-19-4,CCCC=C(C)C,2-METHYL-2-HEXENE,"2-Hexene, 2-methyl-",2-methylhex-2-ene,33796,DTXSID70181810,CCCC=C(C)C,"InChI=1S/C7H14/c1-4-5-6-7(2)3/h6H,4-5H2,1-3H3",BWEKDYGHDCHWEN-UHFFFAOYSA-N,?,,-130.4,107023
107027,2763-96-4,2763-96-4,NCc1cc(O)[n]o1,MUSCIMOL,Muscimol,"5-(aminomethyl)-1,2-oxazol-3-ol",33800,DTXSID5041069,NCc1cc(O)[n]o1,"InChI=1S/C4H6N2O2/c5-2-3-1-4(7)6-8-3/h1H,2,5H2,(H,6,7)",ZJQHPWUVQPJPQT-UHFFFAOYSA-N,?,,175.0,107027
107033,2782-91-4,2782-91-4,CN(C)C(=S)N(C)C,TETRAMETHYLTHIOUREA,"1,1,3,3-Tetramethyl-2-thiourea","1,1,3,3-tetramethylthiourea",33804,DTXSID5026126,CN(C)C(=S)N(C)C,InChI=1S/C5H12N2S/c1-6(2)5(8)7(3)4/h1-4H3,MNOILHPDHOHILI-UHFFFAOYSA-N,?,,79.3,107033
107037,2804-50-4,2804-50-4,FC(F)=C(Cl)C(F)(F)F,"1-PROPENE, 2-CHLORO-1,1,3,3,3-PENTAFLUORO-","1-Propene, 2-chloro-1,1,3,3,3-pentafluoro-","2-chloro-1,1,3,3,3-pentafluoroprop-1-ene",33808,DTXSID7073305,FC(F)=C(Cl)C(F)(F)F,"InChI=1S/C3ClF5/c4-1(2(5)6)3(7,8)9",YTCHAEAIYHLXBK-UHFFFAOYSA-N,?,,-130.0,107037
107041,2810-69-7,36059-21-9,Cc1c(Br)c(Br)c(Br)c(Br)c1C,"1,2-Dimethyltetrabromobenzene","3,4,5,6-Tetrabromo-o-xylene","1,2,3,4-tetrabromo-5,6-dimethylbenzene",33812,DTXSID1026085,Cc1c(Br)c(Br)c(Br)c(Br)c1C,InChI=1S/C8H6Br4/c1-3-4(2)6(10)8(12)7(11)5(3)9/h1-2H3,WVJRAJZMOVQFEC-UHFFFAOYSA-N,?,,262.0,107041
107047,2822-41-5,2822-41-5,Oc1ccc(F)c(F)c1F,"2,3,4-Trifluorophenol","Phenol, 2,3,4-trifluoro-","2,3,4-Trifluorophenol",33818,DTXSID30182469,Oc1ccc(F)c(F)c1F,"InChI=1S/C6H3F3O/c7-3-1-2-4(10)6(9)5(3)8/h1-2,10H",IJGSULQFKYOYEU-UHFFFAOYSA-N,?,,32.0,107047
107052,2835-68-9,2835-68-9,Nc1ccc(cc1)C(N)=O,4-AMINOBENZAMIDE,4-Aminobenzamide,4-aminobenzamide,33822,DTXSID7038814,Nc1ccc(cc1)C(N)=O,"InChI=1S/C7H8N2O/c8-6-3-1-5(2-4-6)7(9)10/h1-4H,8H2,(H2,9,10)",QIKYZXDTTPVVAC-UHFFFAOYSA-N,?,,182.0,107052
107056,2840-28-0,2840-28-0,Nc1cc(ccc1Cl)C(O)=O,3-Amino-4-chlorobenzoic Acid,3-Amino-4-chlorobenzoic acid,3-amino-4-chlorobenzoic acid,33825,DTXSID8044414,Nc1cc(ccc1Cl)C(O)=O,"InChI=1S/C7H6ClNO2/c8-5-2-1-4(7(10)11)3-6(5)9/h1-3H,9H2,(H,10,11)",DMGFVJVLVZOSOE-UHFFFAOYSA-N,?,,214.0,107056
107060,2859-68-9,2859-68-9,OCCCc1cccc[n]1,2-PYRIDINEPROPANOL,2-Pyridinepropanol,3-pyridin-2-ylpropan-1-ol,33829,DTXSID6062672,OCCCc1cccc[n]1,"InChI=1S/C8H11NO/c10-7-3-5-8-4-1-2-6-9-8/h1-2,4,6,10H,3,5,7H2",FVZXYJDGVYLMDB-UHFFFAOYSA-N,?,,34.0,107060
107065,2870-04-4,2870-04-4,CCc1c(C)cccc1C,"1,3-DIMETHYL-2-ETHYLBENZENE",2-Ethyl-m-xylene,"2-ethyl-1,3-dimethylbenzene",33833,DTXSID1062675,CCc1c(C)cccc1C,"InChI=1S/C10H14/c1-4-10-8(2)6-5-7-9(10)3/h5-7H,4H2,1-3H3",CHIKRULMSSADAF-UHFFFAOYSA-N,?,,-16.2,107065
107069,2873-89-4,NOCAS_870997,CCN(CC)c1ccc(Cl)cc1,1-Chloro-4-(diethylamino)benzene,,,33837,DTXSID50870997,CCN(CC)c1ccc(Cl)cc1,"InChI=1S/C10H14ClN/c1-3-12(4-2)10-7-5-9(11)6-8-10/h5-8H,3-4H2,1-2H3",LVIXJLIXKMZERD-UHFFFAOYSA-N,?,,45.5,107069
107073,2876-46-2,2876-46-2,CCCCCCc1cc2ccccc2cc1,"NAPHTHALENE, 2-HEXYL-",2-Hexylnaphthalene,C16H20,33841,DTXSID20334334,CCCCCCc1cc2ccccc2cc1,"InChI=1S/C16H20/c1-2-3-4-5-8-14-11-12-15-9-6-7-10-16(15)13-14/h6-7,9-13H,2-5,8H2,1H3",ZGHJVWFEQWVPTB-UHFFFAOYSA-N,?,,-3.0,107073
107078,2885-00-9,2885-00-9,CCCCCCCCCCCCCCCCCCS,1-OCTADECANETHIOL,1-Octadecanethiol,octadecane-1-thiol,33845,DTXSID0062686,CCCCCCCCCCCCCCCCCCS,"InChI=1S/C18H38S/c1-2-3-4-5-6-7-8-9-10-11-12-13-14-15-16-17-18-19/h19H,2-18H2,1H3",QJAOYSPHSNGHNC-UHFFFAOYSA-N,?,,30.0,107078
107082,2905-65-9,2905-65-9,COC(=O)c1cccc(Cl)c1,"BENZOIC ACID, 3-CHLORO-, METHYL ESTER",Methyl 3-chlorobenzoate,methyl 3-chlorobenzoate,33849,DTXSID6027507,COC(=O)c1cccc(Cl)c1,"InChI=1S/C8H7ClO2/c1-11-8(10)6-3-2-4-7(9)5-6/h2-5H,1H3",XRDRKVPNHIWTBX-UHFFFAOYSA-N,?,,21.0,107082
107086,2921-88-2,2921-88-2,CCOP(=S)(Oc1[n]c(Cl)c(Cl)cc1Cl)OCC,CHLORPYRIFOS,Chlorpyrifos,"O,O-diethyl O-(3,5,6-trichloropyridin-2-yl) phosphorothioate",33853,DTXSID4020458,CCOP(=S)(Oc1[n]c(Cl)c(Cl)cc1Cl)OCC,"InChI=1S/C9H11Cl3NO3PS/c1-3-14-17(18,15-4-2)16-9-7(11)5-6(10)8(12)13-9/h5H,3-4H2,1-2H3",SBPBAQFWLVIOKP-UHFFFAOYSA-N,?,,42.0,107086
107090,2933-94-0,NOCAS_863061,Cc1cccc(c1)OCC(O)CNC(C)C,Toliprolol,,,33857,DTXSID50863061,Cc1cccc(c1)OCC(O)CNC(C)C,"InChI=1S/C13H21NO2/c1-10(2)14-8-12(15)9-16-13-6-4-5-11(3)7-13/h4-7,10,12,14-15H,8-9H2,1-3H3",NXQMNKUGGYNLBY-UHFFFAOYSA-N,?,,76.0,107090
107094,2955-38-6,2955-38-6,O=C1CN=C(c2cc(Cl)ccc2N1CC1CC1)c1ccccc1,PRAZEPAM,Prazepam,"7-chloro-1-(cyclopropylmethyl)-5-phenyl-1,3-dihydro-2H-1,4-benzodiazepin-2-one",33861,DTXSID4021181,O=C1CN=C(c2cc(Cl)ccc2N1CC1CC1)c1ccccc1,"InChI=1S/C19H17ClN2O/c20-15-8-9-17-16(10-15)19(14-4-2-1-3-5-14)21-11-18(23)22(17)12-13-6-7-13/h1-5,8-10,13H,6-7,11-12H2",MWQCHHACWWAQLJ-UHFFFAOYSA-N,?,,145.5,107094
107099,2973-27-5,2973-27-5,N#Cc1cc[n]c2ccccc21,4-CYANOQUINOLINE,4-cyanoquinoline,C10H6N2,33865,DTXSID70296998,N#Cc1cc[n]c2ccccc21,InChI=1S/C10H6N2/c11-7-8-5-6-12-10-4-2-1-3-9(8)10/h1-6H,JBSAUEMFOKUWTP-UHFFFAOYSA-N,?,,103.5,107099
107103,2991-28-8,2991-28-8,OC(=O)c1cc(F)ccc1F,"2,5-Difluorobenzoic Acid","2,5-Difluorobenzoic acid","2,5-Difluorobenzoic acid",33869,DTXSID30184024,OC(=O)c1cc(F)ccc1F,"InChI=1S/C7H4F2O2/c8-4-1-2-6(9)5(3-4)7(10)11/h1-3H,(H,10,11)",LBQMIAVIGLLBGW-UHFFFAOYSA-N,?,,133.0,107103
107108,3011-34-5,3011-34-5,[O-][N+](=O)c1cc(ccc1O)C=O,4-FORMYL-2-NITROPHENOL,4-Hydroxy-3-nitrobenzaldehyde,4-Hydroxy-3-nitrobenzaldehyde,33873,DTXSID80184195,[O-][N+](=O)c1cc(ccc1O)C=O,"InChI=1S/C7H5NO4/c9-4-5-1-2-7(10)6(3-5)8(11)12/h1-4,10H",YTHJCZRFJGXPTL-UHFFFAOYSA-N,?,,141.0,107108
107112,3018-09-5,NOCAS_871005,ClC=CBr,"ETHENE, 1-BROMO-2-CHLORO-",,,33877,DTXSID50871005,ClC=CBr,InChI=1S/C2H2BrCl/c3-1-2-4/h1-2H/b2-1-,LYFQYPSHMWBHFG-UPHRSURJSA-N,?,,-86.7,107112
107118,3032-32-4,NOCAS_863083,Nc1c(C(O)=O)c(Cl)ccc1Cl,"2-Amino-3,6-dichlorobenzoic acid",,,33881,DTXSID70863083,Nc1c(C(O)=O)c(Cl)ccc1Cl,"InChI=1S/C7H5Cl2NO2/c8-3-1-2-4(9)6(10)5(3)7(11)12/h1-2H,10H2,(H,11,12)",MMIREQFMYZQWLU-UHFFFAOYSA-N,?,,155.0,107118
107123,3042-84-0,3042-84-0,NC1C=NN(C(=O)C=1Br)c1ccccc1,Brompyrazone,Brompyrazon,5-amino-4-bromo-2-phenylpyridazin-3(2H)-one,33885,DTXSID1041685,NC1C=NN(C(=O)C=1Br)c1ccccc1,"InChI=1S/C10H8BrN3O/c11-9-8(12)6-13-14(10(9)15)7-4-2-1-3-5-7/h1-6H,12H2",ODNZLRLWXRXPOH-UHFFFAOYSA-N,?,,223.5,107123
107128,3070-53-9,3070-53-9,C=CCCCC=C,"1,6-Heptadiene","1,6-Heptadiene","hepta-1,6-diene",33889,DTXSID2062828,C=CCCCC=C,"InChI=1S/C7H12/c1-3-5-7-6-4-2/h3-4H,1-2,5-7H2",GEAWFZNTIFJMHR-UHFFFAOYSA-N,?,,-129.0,107128
107134,3094-09-5,3094-09-5,C[C@H]1O[C@H]([C@H](O)[C@@H]1O)N1C=C(F)C(=O)NC1=O,Doxifluridine,Doxifluridine,5'-deoxy-5-fluorouridine,33893,DTXSID2022967,CC1OC(C(O)C1O)N1C=C(F)C(=O)NC1=O,"InChI=1S/C9H11FN2O5/c1-3-5(13)6(14)8(17-3)12-2-4(10)7(15)11-9(12)16/h2-3,5-6,8,13-14H,1H3,(H,11,15,16)",ZWAOHEXOSAUJHY-UHFFFAOYSA-N,?,,190.0,107134
107138,3112-88-7,3112-88-7,O=S(=O)(Cc1ccccc1)c1ccccc1,BENZYL PHENYL SULFONE,"Benzene, ((phenylmethyl)sulfonyl)-, (9CI)",phenylmethylsulfonylbenzene,33897,DTXSID10185059,O=S(=O)(Cc1ccccc1)c1ccccc1,"InChI=1S/C13H12O2S/c14-16(15,13-9-5-2-6-10-13)11-12-7-3-1-4-8-12/h1-10H,11H2",FABCMLOTUSCWOR-UHFFFAOYSA-N,?,,146.0,107138
107142,3128-06-1,3128-06-1,CC(=O)CCCC(O)=O,"Hexanoic acid, 5-oxo-","Hexanoic acid, 5-oxo-",5-Oxohexanoic acid,33900,DTXSID9062855,CC(=O)CCCC(O)=O,"InChI=1S/C6H10O3/c1-5(7)3-2-4-6(8)9/h2-4H2,1H3,(H,8,9)",MGTZCLMLSSAXLD-UHFFFAOYSA-N,?,,13.5,107142
107146,3141-24-0,3141-24-0,Brc1[s]c(Br)cc1Br,"Thiophene, 2,3,5-tribromo-","Thiophene, 2,3,5-tribromo-","2,3,5-Tribromothiophene",33904,DTXSID8062862,Brc1[s]c(Br)cc1Br,InChI=1S/C4HBr3S/c5-2-1-3(6)8-4(2)7/h1H,SKDNDSLDRLEELJ-UHFFFAOYSA-N,?,,29.0,107146
107151,3146-39-2,NOCAS_871884,C1C2CCC1C1OC21,"exo-2,3-Epoxynorbornane",,,33908,DTXSID10871884,C1C2CCC1C1OC21,"InChI=1S/C7H10O/c1-2-5-3-4(1)6-7(5)8-6/h4-7H,1-3H2",OHNNZOOGWXZCPZ-UHFFFAOYSA-N,?,,123.0,107151
107155,3153-44-4,3153-44-4,COc1ccc(cc1)C(=O)CCC(O)=O,"BENZENEBUTANOIC ACID, 4-METHOXY-?-OXO-",3-(4-Methoxybenzoyl)propionic acid,4-(4-methoxyphenyl)-4-oxobutanoic acid,33912,DTXSID50185432,COc1ccc(cc1)C(=O)CCC(O)=O,"InChI=1S/C11H12O4/c1-15-9-4-2-8(3-5-9)10(12)6-7-11(13)14/h2-5H,6-7H2,1H3,(H,13,14)",OMTDIBZSUZNVJK-UHFFFAOYSA-N,?,,149.0,107155
107159,3167-49-5,3167-49-5,Nc1ccc(c[n]1)C(O)=O,"3-Pyridinecarboxylic acid, 6-amino-","3-Pyridinecarboxylic acid, 6-amino-",6-aminopyridine-3-carboxylic acid,33915,DTXSID6062882,Nc1ccc(c[n]1)C(O)=O,"InChI=1S/C6H6N2O2/c7-5-2-1-4(3-8-5)6(9)10/h1-3H,(H2,7,8)(H,9,10)",ZCIFWRHIEBXBOY-UHFFFAOYSA-N,?,,312.0,107159
107163,3173-79-3,3173-79-3,CC(C)=C1OC(=O)C1(C)C,"4-Isopropylidene-3,3-dimethyl-oxetan-2-one","2-Oxetanone, 3,3-dimethyl-4-(1-methylethylidene)- (9CI)","3,3-dimethyl-4-propan-2-ylideneoxetan-2-one",33919,DTXSID20185621,CC(C)=C1OC(=O)C1(C)C,"InChI=1S/C8H12O2/c1-5(2)6-8(3,4)7(9)10-6/h1-4H3",OKAAPXFKYOTAEN-UHFFFAOYSA-N,?,,-18.0,107163
107168,3180-81-2,3180-81-2,CCN(CCO)c1ccc(cc1)/N=N/c1ccc(cc1Cl)[N+]([O-])=O,C.I. 11115,"Ethanol, 2-((4-((2-chloro-4-nitrophenyl)azo)phenyl)ethylamino)-",2-[{4-[(E)-(2-chloro-4-nitrophenyl)diazenyl]phenyl}(ethyl)amino]ethanol,33923,DTXSID5038915,CCN(CCO)c1ccc(cc1)N=Nc1ccc(cc1Cl)[N+]([O-])=O,"InChI=1S/C16H17ClN4O3/c1-2-20(9-10-22)13-5-3-12(4-6-13)18-19-16-8-7-14(21(23)24)11-15(16)17/h3-8,11,22H,2,9-10H2,1H3/b19-18+",FEJPWLNPOFOBSP-VHEBQXMUSA-N,?,,133.0,107168
107172,3209-22-1,3209-22-1,[O-][N+](=O)c1cccc(Cl)c1Cl,"2,3-DICHLORONITROBENZENE","2,3-Dichloronitrobenzene","1,2-dichloro-3-nitrobenzene",33927,DTXSID8024997,[O-][N+](=O)c1cccc(Cl)c1Cl,InChI=1S/C6H3Cl2NO2/c7-4-2-1-3-5(6(4)8)9(10)11/h1-3H,CMVQZRLQEOAYSW-UHFFFAOYSA-N,?,,61.5,107172