ChemID,source_casrn,CAS,SMILES,NAME,preferred_name,iupac,MPID,dsstox_substance_id,Canonical_QSARr,InChI_Code_QSARr,InChI Key_QSARr,Salt_Solvent,BP,ID
101578,288-32-4,288-32-4,c1[nH]cc[n]1,IMIDAZOLE,Imidazole,C3H4N2,20636,DTXSID2029616,c1[nH]cc[n]1,"InChI=1S/C3H4N2/c1-2-5-3-4-1/h1-3H,(H,4,5)",RAXXELZNTBOGNW-UHFFFAOYSA-N,?,257.0,101578
101579,288-36-8,NOCAS_870495,c1c[n][nH][n]1,"2H-1,2,3-TRIAZOLE",,,20637,DTXSID30870495,c1c[n][nH][n]1,"InChI=1S/C2H3N3/c1-2-4-5-3-1/h1-2H,(H,3,4,5)",QWENRTYMTSOGBR-UHFFFAOYSA-N,?,204.0,101579
101580,288-42-6,288-42-6,c1[n]cco1,OXAZOLE,Oxazole,"1,3-oxazole",20638,DTXSID70182983,c1[n]cco1,InChI=1S/C3H3NO/c1-2-5-3-4-1/h1-3H,ZCQWOFVYLHDMMC-UHFFFAOYSA-N,?,69.5,101580
101582,289-80-5,289-80-5,c1ccc[n][n]1,PYRIDAZINE,Pyridazine,PYRIDAZINE,20640,DTXSID7059777,c1ccc[n][n]1,InChI=1S/C4H4N2/c1-2-4-6-5-3-1/h1-4H,PBMFSQRYOILNGV-UHFFFAOYSA-N,?,208.0,101582
101583,289-95-2,289-95-2,c1[n]ccc[n]1,PYRIMIDINE,Pyrimidine,pyrimidine,20641,DTXSID1051228,c1[n]ccc[n]1,InChI=1S/C4H4N2/c1-2-5-4-6-3-1/h1-4H,CZPWVGJYEJSRLH-UHFFFAOYSA-N,?,123.8,101583
101584,290-37-9,290-37-9,c1c[n]cc[n]1,PYRAZINE,Pyrazine,pyrazine,20642,DTXSID8049410,c1c[n]cc[n]1,InChI=1S/C4H4N2/c1-2-6-4-3-5-1/h1-4H,KYQCOXFCLRTKLS-UHFFFAOYSA-N,?,115.0,101584
101586,291-64-5,291-64-5,C1CCCCCC1,CYCLOHEPTANE,Cycloheptane,Cycloheptane,20644,DTXSID0074269,C1CCCCCC1,InChI=1S/C7H14/c1-2-4-6-7-5-3-1/h1-7H2,DMEGYFMYUHOHGS-UHFFFAOYSA-N,?,118.4,101586
101587,292-64-8,292-64-8,C1CCCCCCC1,CYCLOOCTANE,Cyclooctane,,20645,DTXSID9075377,C1CCCCCCC1,InChI=1S/C8H16/c1-2-4-6-8-7-5-3-1/h1-8H2,WJTCGQSWYFHTAC-UHFFFAOYSA-N,?,149.0,101587
101588,293-96-9,293-96-9,C1CCCCCCCCC1,CYCLODECANE,Cyclodecane,CYCLODECANE,20646,DTXSID7059779,C1CCCCCCCCC1,InChI=1S/C10H20/c1-2-4-6-8-10-9-7-5-3-1/h1-10H2,LMGZGXSXHCMSAA-UHFFFAOYSA-N,?,202.0,101588
101590,298-18-0|1464-53-5,298-18-0|1464-53-5,C1O[C@@H]1[C@@H]1CO1,"1,2:3,4-DIEPOXYBUTANE DL, DIEPOXYBUTANE",dl-Diepoxybutane,"(2S,2'S)-2,2'-bioxirane",20648|22758,DTXSID9020455|DTXSID0041307,C1OC1C1CO1,"InChI=1S/C4H6O2/c1-3(5-1)4-2-6-4/h3-4H,1-2H2",ZFIVKAOQEXOYFY-UHFFFAOYSA-N,?,144.0,101590
101591,299-42-3,299-42-3,C[C@H](NC)[C@H](O)c1ccccc1,"(1R,2S)-(-)-EPHEDRINE",Ephedrine,C10H15NO,20649,DTXSID0022985,CC(NC)C(O)c1ccccc1,"InChI=1S/C10H15NO/c1-8(11-2)10(12)9-6-4-3-5-7-9/h3-8,10-12H,1-2H3",KWGRBVOPPLSCSI-UHFFFAOYSA-N,?,255.0,101591
101592,300-57-2,NOCAS_861855,C=CCc1ccccc1,ALLYLBENZENE,,,20650,DTXSID00861855,C=CCc1ccccc1,"InChI=1S/C9H10/c1-2-6-9-7-4-3-5-8-9/h2-5,7-8H,1,6H2",HJWLCRVIBGQPNF-UHFFFAOYSA-N,?,156.0,101592
101595,302-17-0,302-17-0,OC(O)C(Cl)(Cl)Cl,CHORAL HYDRATE,Chloral hydrate,"2,2,2-trichloroethane-1,1-diol",20653,DTXSID7020261,OC(O)C(Cl)(Cl)Cl,"InChI=1S/C2H3Cl3O2/c3-2(4,5)1(6)7/h1,6-7H",RNFNDJAIBTYOQL-UHFFFAOYSA-N,?,98.0,101595
101596,303-04-8,303-04-8,FC(F)(F)C(Cl)=C(Cl)C(F)(F)F,"2-BUTENE, 2,3-DICHLORO-1,1,1,4,4,4-HEXAFLUORO-","2-Butene, 2,3-dichloro-1,1,1,4,4,4-hexafluoro-",,20654,DTXSID5073161,FC(F)(F)C(Cl)=C(Cl)C(F)(F)F,"InChI=1S/C4Cl2F6/c5-1(3(7,8)9)2(6)4(10,11)12/b2-1+",XDIDQEGAKCWQQP-OWOJBTEDSA-N,?,68.5,101596
101597,306-83-2,306-83-2,FC(F)(F)C(Cl)Cl,"1,1,1-TRIFLUORO-2,2-DICHLOROETHANE","2,2-Dichloro-1,1,1-trifluoroethane","2,2-dichloro-1,1,1-trifluoroethane",20655,DTXSID7020712,FC(F)(F)C(Cl)Cl,"InChI=1S/C2HCl2F3/c3-1(4)2(5,6)7/h1H",OHMHBGPWCHTMQE-UHFFFAOYSA-N,?,27.0,101597
101600,306-94-5,306-94-5,FC1(F)C2(F)C(F)(C(F)(F)C(F)(F)C1(F)F)C(F)(F)C(F)(F)C(F)(F)C2(F)F,"Naphthalene, octadecafluorodecahydro-",Perflunafene,octadecafluorodecahydronaphthalene,20657,DTXSID0046511,FC1(F)C2(F)C(F)(C(F)(F)C(F)(F)C1(F)F)C(F)(F)C(F)(F)C(F)(F)C2(F)F,"InChI=1S/C10F18/c11-1-2(12,5(17,18)9(25,26)7(21,22)3(1,13)14)6(19,20)10(27,28)8(23,24)4(1,15)16",UWEYRJFJVCLAGH-UHFFFAOYSA-N,?,142.0,101600
101602,307-30-2,307-30-2,OCC(F)(F)C(F)(F)C(F)(F)C(F)(F)C(F)(F)C(F)(F)C(F)(F)F,Pentadecafluoro-1-octanol,"1-Octanol, 2,2,3,3,4,4,5,5,6,6,7,7,8,8,8-pentadecafluoro-","2,2,3,3,4,4,5,5,6,6,7,7,8,8,8-Pentadecafluorooctan-1-ol",20658,DTXSID5059793,OCC(F)(F)C(F)(F)C(F)(F)C(F)(F)C(F)(F)C(F)(F)C(F)(F)F,"InChI=1S/C8H3F15O/c9-2(10,1-24)3(11,12)4(13,14)5(15,16)6(17,18)7(19,20)8(21,22)23/h24H,1H2",PJDOLCGOTSNFJM-UHFFFAOYSA-N,?,161.0,101602
101603,307-34-6,307-34-6,FC(F)(F)C(F)(F)C(F)(F)C(F)(F)C(F)(F)C(F)(F)C(F)(F)C(F)(F)F,"Octane, octadecafluoro-","Octane, octadecafluoro-","1,1,1,2,2,3,3,4,4,5,5,6,6,7,7,8,8,8-octadecafluorooctane",20659,DTXSID0059794,FC(F)(F)C(F)(F)C(F)(F)C(F)(F)C(F)(F)C(F)(F)C(F)(F)C(F)(F)F,"InChI=1S/C8F18/c9-1(10,3(13,14)5(17,18)7(21,22)23)2(11,12)4(15,16)6(19,20)8(24,25)26",YVBBRRALBYAZBM-UHFFFAOYSA-N,?,105.9,101603
101605,307-55-1,307-55-1,OC(=O)C(F)(F)C(F)(F)C(F)(F)C(F)(F)C(F)(F)C(F)(F)C(F)(F)C(F)(F)C(F)(F)C(F)(F)C(F)(F)F,Perfluorododecanoic acid,PFDOA,tricosafluorododecanoic acid,20661,DTXSID8031861,OC(=O)C(F)(F)C(F)(F)C(F)(F)C(F)(F)C(F)(F)C(F)(F)C(F)(F)C(F)(F)C(F)(F)C(F)(F)C(F)(F)F,"InChI=1S/C12HF23O2/c13-2(14,1(36)37)3(15,16)4(17,18)5(19,20)6(21,22)7(23,24)8(25,26)9(27,28)10(29,30)11(31,32)12(33,34)35/h(H,36,37)",CXGONMQFMIYUJR-UHFFFAOYSA-N,?,249.0,101605
101606,308-24-7,308-24-7,FC1C(F)(F)C(F)(F)C(F)(F)C(F)(F)C1(F)F,Undecafluorocyclohexane,"Cyclohexane, undecafluoro-","1,1,2,2,3,3,4,4,5,5,6-undecafluorocyclohexane",20662,DTXSID8075384,FC1C(F)(F)C(F)(F)C(F)(F)C(F)(F)C1(F)F,"InChI=1S/C6HF11/c7-1-2(8,9)4(12,13)6(16,17)5(14,15)3(1,10)11/h1H",AWQSRASHARXGAH-UHFFFAOYSA-N,?,62.0,101606
101607,308-48-5,308-48-5,FC(F)(F)C(F)(F)C(F)(F)C(F)(F)OC(F)(F)C(F)(F)C(F)(F)C(F)(F)F,Perfluorobutyl ether,"Ether, bis(nonafluorobutyl)","1,1,1,2,2,3,3,4,4-nonafluoro-4-(1,1,2,2,3,3,4,4,4-nonafluorobutoxy)butane",20663,DTXSID60184810,FC(F)(F)C(F)(F)C(F)(F)C(F)(F)OC(F)(F)C(F)(F)C(F)(F)C(F)(F)F,"InChI=1S/C8F18O/c9-1(10,5(17,18)19)3(13,14)7(23,24)27-8(25,26)4(15,16)2(11,12)6(20,21)22",LOJJTTDNNWYSGX-UHFFFAOYSA-N,?,102.0,101607
101609,313-72-4,313-72-4,Fc1c2c(c(F)c(F)c1F)c(F)c(F)c(F)c2F,Octafluoronaphthalene,Octafluoronaphthalene,"1,2,3,4,5,6,7,8-octafluoronaphthalene",20665,DTXSID60185221,Fc1c2c(c(F)c(F)c1F)c(F)c(F)c(F)c2F,InChI=1S/C10F8/c11-3-1-2(5(13)9(17)7(3)15)6(14)10(18)8(16)4(1)12,JDCMOHAFGDQQJX-UHFFFAOYSA-N,?,209.0,101609
101610,315-14-0,315-14-0,[O-][N+](=O)c1c(F)cc(F)cc1F,"1,3,5-Trifluoro-2-nitrobenzene","1,3,5-Trifluoro-2-nitrobenzene","1,3,5-Trifluoro-2-nitrobenzene",20666,DTXSID80185400,[O-][N+](=O)c1c(F)cc(F)cc1F,InChI=1S/C6H2F3NO2/c7-3-1-4(8)6(10(11)12)5(9)2-3/h1-2H,PWRFDGYYJWQIAB-UHFFFAOYSA-N,?,183.5,101610
101612,319-88-0,319-88-0,Fc1c(Cl)c(F)c(Cl)c(F)c1Cl,"BENZENE, 1,3,5-TRICHLORO-2,4,6-TRIFLUORO-","Benzene, 1,3,5-trichloro-2,4,6-trifluoro-","1,3,5-Trichloro-2,4,6-trifluorobenzene",20667,DTXSID30185758,Fc1c(Cl)c(F)c(Cl)c(F)c1Cl,InChI=1S/C6Cl3F3/c7-1-4(10)2(8)6(12)3(9)5(1)11,QPXZZPSKCVNHFW-UHFFFAOYSA-N,?,198.4,101612
101614,321-28-8,321-28-8,COc1ccccc1F,2-FLUOROANISOLE,2-Fluoroanisole,1-Fluoro-2-methoxybenzene,20669,DTXSID50185891,COc1ccccc1F,"InChI=1S/C7H7FO/c1-9-7-5-3-2-4-6(7)8/h2-5H,1H3",JIXDOBAQOWOUPA-UHFFFAOYSA-N,?,154.5,101614
101615,321-38-0,321-38-0,Fc1cccc2ccccc21,1-FLUORONAPHTHALENE,1-Fluoronaphthalene,1-Fluoronaphthalene,20670,DTXSID7059808,Fc1cccc2ccccc21,InChI=1S/C10H7F/c11-10-7-3-5-8-4-1-2-6-9(8)10/h1-7H,CWLKTJOTWITYSI-UHFFFAOYSA-N,?,215.0,101615
101616,321-60-8,321-60-8,Fc1ccccc1-c1ccccc1,"1,1'-Biphenyl, 2-fluoro-",2-Fluorobiphenyl,2-fluorobiphenyl,20671,DTXSID5047744,Fc1ccccc1-c1ccccc1,InChI=1S/C12H9F/c13-12-9-5-4-8-11(12)10-6-2-1-3-7-10/h1-9H,KLECYOQFQXJYBC-UHFFFAOYSA-N,?,248.0,101616
101619,324-74-3,324-74-3,Fc1ccc(cc1)-c1ccccc1,4-FLUOROBIPHENYL,4-Fluorobiphenyl,1-fluoro-4-phenylbenzene,20673,DTXSID00186111,Fc1ccc(cc1)-c1ccccc1,InChI=1S/C12H9F/c13-12-8-6-11(7-9-12)10-4-2-1-3-5-10/h1-9H,RUYZJEIKQYLEGZ-UHFFFAOYSA-N,?,253.0,101619
101620,326-62-5,326-62-5,N#CCc1ccccc1F,"Benzeneacetonitrile, 2-fluoro-","Benzeneacetonitrile, 2-fluoro-",2-(2-fluorophenyl)acetonitrile,20674,DTXSID1059810,N#CCc1ccccc1F,"InChI=1S/C8H6FN/c9-8-4-2-1-3-7(8)5-6-10/h1-4H,5H2",DAVJMKMVLKOQQC-UHFFFAOYSA-N,?,232.0,101620
101621,327-54-8,327-54-8,Fc1cc(F)c(F)cc1F,"1,2,4,5-TETRAFLUOROBENZENE","1,2,4,5-Tetrafluorobenzene","1,2,4,5-Tetrafluorobenzene",20675,DTXSID90186367,Fc1cc(F)c(F)cc1F,InChI=1S/C6H2F4/c7-3-1-4(8)6(10)2-5(3)9/h1-2H,SDXUIOOHCIQXRP-UHFFFAOYSA-N,?,90.2,101621
101623,329-99-7,329-99-7,CP(=O)(F)OC1CCCCC1,Cyclohexyl methylphosphonofluoridate,,,20677,DTXSID00861875,CP(=O)(F)OC1CCCCC1,"InChI=1S/C7H14FO2P/c1-11(8,9)10-7-5-3-2-4-6-7/h7H,2-6H2,1H3",SNTRKUOVAPUGAY-UHFFFAOYSA-N,?,239.0,101623
101624,332-25-2,332-25-2,N#Cc1ccc(cc1)OC(F)(F)F,4-(TRIFLUOROMETHOXY)BENZONITRILE,"Benzonitrile, 4-(trifluoromethoxy)-",4-(Trifluoromethoxy)benzonitrile,20678,DTXSID5073163,N#Cc1ccc(cc1)OC(F)(F)F,"InChI=1S/C8H4F3NO/c9-8(10,11)13-7-3-1-6(5-12)2-4-7/h1-4H",XWHIXOMWXCHJPP-UHFFFAOYSA-N,?,192.5,101624
101625,332-77-4,5143-08-8,CO[C@H]1C=C[C@@H](O1)OC,"Furan, 2,5-dihydro-2,5-dimethoxy-",AC1LCUG2,C6H10O3,20679,DTXSID50348449,COC1C=CC(O1)OC,"InChI=1S/C6H10O3/c1-7-5-3-4-6(8-2)9-5/h3-6H,1-2H3",WXFWXFIWDGJRSC-UHFFFAOYSA-N,?,161.0,101625
101627,334-48-5,334-48-5,CCCCCCCCCC(O)=O,DECANOIC ACID,Decanoic acid,decanoic acid,20681,DTXSID9021554,CCCCCCCCCC(O)=O,"InChI=1S/C10H20O2/c1-2-3-4-5-6-7-8-9-10(11)12/h2-9H2,1H3,(H,11,12)",GHVNFZFCNZKVNT-UHFFFAOYSA-N,?,268.7,101627
101628,334-56-5,334-56-5,CCCCCCCCCCF,1-FLUORODECANE,"Decane, 1-fluoro-",1-FLUORODECANE,20682,DTXSID5059826,CCCCCCCCCCF,"InChI=1S/C10H21F/c1-2-3-4-5-6-7-8-9-10-11/h2-10H2,1H3",LHLRHWJTTUCDQA-UHFFFAOYSA-N,?,186.2,101628
101629,335-27-3,335-27-3,FC1(F)C(F)(C(F)(F)C(F)(F)C(F)(F)C1(F)C(F)(F)F)C(F)(F)F,Perfluorodimethylcyclohexane,"Perfluoro-1,3-dimethylcyclohexane","1,1,2,2,3,3,4,5,5,6-decafluoro-4,6-bis(trifluoromethyl)cyclohexane",20683,DTXSID0036926,FC1(F)C(F)(C(F)(F)C(F)(F)C(F)(F)C1(F)C(F)(F)F)C(F)(F)F,"InChI=1S/C8F16/c9-1(7(19,20)21)3(11,12)2(10,8(22,23)24)5(15,16)6(17,18)4(1,13)14",LOQGSOTUHASIHI-UHFFFAOYSA-N,?,102.0,101629
101632,335-48-8,335-48-8,FC(F)(Br)C(F)(F)C(F)(F)C(F)(F)Br,"1,4-Dibromooctafluorobutane","1,4-Dibromooctafluorobutane",C4Br2F8,20685,DTXSID00371601,FC(F)(Br)C(F)(F)C(F)(F)C(F)(F)Br,"InChI=1S/C4Br2F8/c5-3(11,12)1(7,8)2(9,10)4(6,13)14",RWWUGYJWSVESJC-UHFFFAOYSA-N,?,97.0,101632
101633,335-56-8,335-56-8,FC(F)(F)C(F)(F)C(F)(F)C(F)(F)C(F)(F)C(F)(F)Br,1-Bromo-tridecafluorohexane,Perfluorohexylbromide,"1-Bromo-1,1,2,2,3,3,4,4,5,5,6,6,6-tridecafluorohexane",20686,DTXSID80187141,FC(F)(F)C(F)(F)C(F)(F)C(F)(F)C(F)(F)C(F)(F)Br,"InChI=1S/C6BrF13/c7-5(16,17)3(12,13)1(8,9)2(10,11)4(14,15)6(18,19)20",JTYRBFORUCBNHJ-UHFFFAOYSA-N,?,98.0,101633
101634,335-57-9,335-57-9,FC(F)(F)C(F)(F)C(F)(F)C(F)(F)C(F)(F)C(F)(F)C(F)(F)F,PERFLUOROHEPTANE,Perfluoroheptane,hexadecafluoroheptane,20687,DTXSID8052019,FC(F)(F)C(F)(F)C(F)(F)C(F)(F)C(F)(F)C(F)(F)C(F)(F)F,"InChI=1S/C7F16/c8-1(9,2(10,11)4(14,15)6(18,19)20)3(12,13)5(16,17)7(21,22)23",LGUZHRODIJCVOC-UHFFFAOYSA-N,?,82.5,101634
101636,335-67-1,335-67-1,OC(=O)C(F)(F)C(F)(F)C(F)(F)C(F)(F)C(F)(F)C(F)(F)C(F)(F)F,Perfluorooctanoic Acid,PFOA,pentadecafluorooctanoic acid,20689,DTXSID8031865,OC(=O)C(F)(F)C(F)(F)C(F)(F)C(F)(F)C(F)(F)C(F)(F)C(F)(F)F,"InChI=1S/C8HF15O2/c9-2(10,1(24)25)3(11,12)4(13,14)5(15,16)6(17,18)7(19,20)8(21,22)23/h(H,24,25)",SNGREZUHAYWORS-UHFFFAOYSA-N,?,189.0,101636
101637,336-19-6,336-19-6,FC1(F)C(Cl)=C(Cl)C(F)(F)C(F)(F)C1(F)F,"1,2-DiCL-3,3,4,4,5,5,6,6-octafluoro-cyclohexane","Cyclohexene, 1,2-dichlorooctafluoro-","1,2-Dichloro-3,3,4,4,5,5,6,6-octafluorocyclohexene",20690,DTXSID30187297,FC1(F)C(Cl)=C(Cl)C(F)(F)C(F)(F)C1(F)F,"InChI=1S/C6Cl2F8/c7-1-2(8)4(11,12)6(15,16)5(13,14)3(1,9)10",BICOGOBTBGYGFA-UHFFFAOYSA-N,?,113.0,101637
101638,336-59-4,NOCAS_861881,O=C(OC(=O)C(F)(F)C(F)(F)C(F)(F)F)C(F)(F)C(F)(F)C(F)(F)F,"Butanoic acid, heptafluoro-, anhydride",,,20691,DTXSID10861881,O=C(OC(=O)C(F)(F)C(F)(F)C(F)(F)F)C(F)(F)C(F)(F)C(F)(F)F,"InChI=1S/C8F14O3/c9-3(10,5(13,14)7(17,18)19)1(23)25-2(24)4(11,12)6(15,16)8(20,21)22",UFFSXJKVKBQEHC-UHFFFAOYSA-N,?,106.5,101638
101640,338-83-0,338-83-0,FC(F)(F)C(F)(F)C(F)(F)N(C(F)(F)C(F)(F)C(F)(F)F)C(F)(F)C(F)(F)C(F)(F)F,"1-Propanamine, 1,1,2,2,3,3,3-heptafluoro-N,N-bis","1-Propanamine, 1,1,2,2,3,3,3-heptafluoro-N,N-bis(heptafluoropropyl)-","1,1,2,2,3,3,3-heptafluoro-N,N-bis(1,1,2,2,3,3,3-heptafluoropropyl)propan-1-amine",20693,DTXSID9059834,FC(F)(F)C(F)(F)C(F)(F)N(C(F)(F)C(F)(F)C(F)(F)F)C(F)(F)C(F)(F)C(F)(F)F,"InChI=1S/C9F21N/c10-1(11,4(16,17)18)7(25,26)31(8(27,28)2(12,13)5(19,20)21)9(29,30)3(14,15)6(22,23)24",JAJLKEVKNDUJBG-UHFFFAOYSA-N,?,130.0,101640
101641,344-04-7,344-04-7,Fc1c(F)c(F)c(Br)c(F)c1F,BROMOPENTAFLUOROBENZENE,Bromopentafluorobenzene,"1-bromo-2,3,4,5,6-pentafluorobenzene",20694,DTXSID3047136,Fc1c(F)c(F)c(Br)c(F)c1F,InChI=1S/C6BrF5/c7-1-2(8)4(10)6(12)5(11)3(1)9,XEKTVXADUPBFOA-UHFFFAOYSA-N,?,137.0,101641
101642,344-07-0,344-07-0,Fc1c(F)c(F)c(Cl)c(F)c1F,CHLOROPENTAFLUOROBENZENE,"Benzene, chloropentafluoro-","1-chloro-2,3,4,5,6-pentafluorobenzene",20695,DTXSID4059837,Fc1c(F)c(F)c(Cl)c(F)c1F,InChI=1S/C6ClF5/c7-1-2(8)4(10)6(12)5(11)3(1)9,KGCDGLXSBHJAHZ-UHFFFAOYSA-N,?,117.9,101642
101644,348-52-7,348-52-7,Fc1ccccc1I,"Benzene, 1-fluoro-2-iodo-",o-Fluoroiodobenzene,1-Fluoro-2-iodobenzene,20697,DTXSID3059842,Fc1ccccc1I,InChI=1S/C6H4FI/c7-5-3-1-2-4-6(5)8/h1-4H,TYHUGKGZNOULKD-UHFFFAOYSA-N,?,188.6,101644
101645,348-54-9,348-54-9,Nc1ccccc1F,2-FLUOROANILINE,o-Fluoroaniline,2-Fluoroaniline,20698,DTXSID8059843,Nc1ccccc1F,"InChI=1S/C6H6FN/c7-5-3-1-2-4-6(5)8/h1-4H,8H2",FTZQXOJYPFINKJ-UHFFFAOYSA-N,?,175.0,101645
101646,349-76-8,349-76-8,CC(=O)c1cc(ccc1)C(F)(F)F,3'-(Trifluoromethyl)acetophenone,"Ethanone, 1-[3-(trifluoromethyl)phenyl]-",1-[3-(trifluoromethyl)phenyl]ethanone,20699,DTXSID3059844,CC(=O)c1cc(ccc1)C(F)(F)F,"InChI=1S/C9H7F3O/c1-6(13)7-3-2-4-8(5-7)9(10,11)12/h2-5H,1H3",ABXGMGUHGLQMAW-UHFFFAOYSA-N,?,199.0,101646
101648,350-46-9,350-46-9,[O-][N+](=O)c1ccc(F)cc1,4-FLUORONITROBENZENE,1-Fluoro-4-nitrobenzene,1-fluoro-4-nitrobenzene,20701,DTXSID9022025,[O-][N+](=O)c1ccc(F)cc1,InChI=1S/C6H4FNO2/c7-5-1-3-6(4-2-5)8(9)10/h1-4H,WFQDTOYDVUWQMS-UHFFFAOYSA-N,?,205.0,101648
101649,350-50-5,350-50-5,FCc1ccccc1,BENZYL FLUORIDE,Benzyl fluoride,fluoromethylbenzene,20702,DTXSID8059847,FCc1ccccc1,"InChI=1S/C7H7F/c8-6-7-4-2-1-3-5-7/h1-5H,6H2",MBXXQYJBFRRFCK-UHFFFAOYSA-N,?,140.0,101649
101650,350-90-3,NOCAS_870508,OC(=O)/C(/F)=C/c1ccccc1,"Cinnamic acid, alpha-fluoro-",,,20703,DTXSID00870508,OC(=O)C(F)=Cc1ccccc1,"InChI=1S/C9H7FO2/c10-8(9(11)12)6-7-4-2-1-3-5-7/h1-6H,(H,11,12)/b8-6-",QONCEXMULRJPPY-VURMDHGXSA-N,?,290.0,101650
101652,352-33-0,352-33-0,Fc1ccc(Cl)cc1,P-CHLOROFLUOROBENZENE,"Benzene, 1-chloro-4-fluoro-",1-Chloro-4-fluorobenzene,20705,DTXSID2059853,Fc1ccc(Cl)cc1,InChI=1S/C6H4ClF/c7-5-1-3-6(8)4-2-5/h1-4H,RJCGZNCCVKIBHO-UHFFFAOYSA-N,?,130.0,101652
101653,352-34-1,352-34-1,Fc1ccc(I)cc1,"Benzene, 1-fluoro-4-iodo-",p-Fluoroiodobenzene,1-Fluoro-4-iodobenzene,20706,DTXSID7059854,Fc1ccc(I)cc1,InChI=1S/C6H4FI/c7-5-1-3-6(8)4-2-5/h1-4H,KGNQDBQYEBMPFZ-UHFFFAOYSA-N,?,183.0,101653
101654,352-61-4,352-61-4,OCCCCC(F)(F)F,"5,5,5-TRIFLUORO-1-PENTANOL","5,5,5-trifluoropentan-1-ol",C5H9F3O,20707,DTXSID40377829,OCCCCC(F)(F)F,"InChI=1S/C5H9F3O/c6-5(7,8)3-1-2-4-9/h9H,1-4H2",WNHMIKSCDKSJDI-UHFFFAOYSA-N,?,147.75,101654
101656,352-91-0,352-91-0,FCCCBr,1-bromo-3-fluoropropane,1-Bromo-3-fluoropropane,1-Bromo-3-fluoropropane,20709,DTXSID50188701,FCCCBr,InChI=1S/C3H6BrF/c4-2-1-3-5/h1-3H2,VNHWPVLQRKKKRY-UHFFFAOYSA-N,?,101.4,101656
101657,352-93-2,352-93-2,CCSCC,DIETHYLSULFIDE,Diethyl sulfide,diethyl sulfide,20710,DTXSID5027146,CCSCC,"InChI=1S/C4H10S/c1-3-5-4-2/h3-4H2,1-2H3",LJSQFQKUNVCTIA-UHFFFAOYSA-N,?,92.1,101657
101658,353-36-6,353-36-6,CCF,FLUOROETHANE,HFC-161,FLUOROETHANE,20711,DTXSID2059857,CCF,"InChI=1S/C2H5F/c1-2-3/h2H2,1H3",UHCBBWUQDAVSMS-UHFFFAOYSA-N,?,-37.6,101658
101660,353-54-8,353-54-8,FC(Br)(Br)Br,"Methane, tribromofluoro-","Methane, tribromofluoro-",tribromo-fluoromethane,20713,DTXSID2059859,FC(Br)(Br)Br,"InChI=1S/CBr3F/c2-1(3,4)5",IHZAEIHJPNTART-UHFFFAOYSA-N,?,108.0,101660
101661,353-55-9,353-55-9,FC(Cl)(Br)Br,dibromochlorofluoromethane,Dibromochlorofluoromethane,dibromo-chloro-fluoromethane,20714,DTXSID70188809,FC(Cl)(Br)Br,"InChI=1S/CBr2ClF/c2-1(3,4)5",HEDKQVNHJZBFQR-UHFFFAOYSA-N,?,80.3,101661
101662,353-58-2,353-58-2,FC(Cl)(Cl)Br,"METHANE, BROMODICHLOROFLUORO-",Dichlorobromofluoromethane,bromo-dichloro-fluoromethane,20715,DTXSID2074291,FC(Cl)(Cl)Br,"InChI=1S/CBrCl2F/c2-1(3,4)5",ARBYBCHKMDUXNE-UHFFFAOYSA-N,?,52.0,101662
101664,353-82-2,NOCAS_870509,N#CC(F)(Cl)Cl,"ACETONITRILE, DICHLOROFLUORO-",,,20717,DTXSID60870509,N#CC(F)(Cl)Cl,"InChI=1S/C2Cl2FN/c3-2(4,5)1-6",IUHXUTRMGQCBPC-UHFFFAOYSA-N,?,33.0,101664
101665,353-83-3,353-83-3,FC(F)(F)CI,"1,1,1-trifluoro-2-iodoethane","1,1,1-Trifluoro-2-iodoethane","1,1,1-trifluoro-2-iodoethane",20718,DTXSID80188810,FC(F)(F)CI,"InChI=1S/C2H2F3I/c3-2(4,5)1-6/h1H2",RKOUFQLNMRAACI-UHFFFAOYSA-N,?,54.5,101665
101666,353-85-5,353-85-5,N#CC(F)(F)F,"Acetonitrile, trifluoro-","Acetonitrile, trifluoro-",,20719,DTXSID1059862,N#CC(F)(F)F,"InChI=1S/C2F3N/c3-2(4,5)1-6",SFFUEHODRAXXIA-UHFFFAOYSA-N,?,-68.8,101666
101668,354-06-3,NOCAS_861887,FC(Cl)C(F)(F)Br,"Ethane, 1-bromo-2-chloro-1,1,2-trifluoro-",,,20721,DTXSID70861887,FC(Cl)C(F)(F)Br,"InChI=1S/C2HBrClF3/c3-2(6,7)1(4)5/h1H",KFTODZKBBUMDQB-UHFFFAOYSA-N,?,52.5,101668
101669,354-11-0,354-11-0,FC(Cl)C(Cl)(Cl)Cl,"Ethane, 1,1,1,2-tetrachloro-2-fluoro-","1,1,1,2-tetrachloro-2-fluoroethane","1,1,1,2-tetrachloro-2-fluoroethane",20722,DTXSID6042020,FC(Cl)C(Cl)(Cl)Cl,"InChI=1S/C2HCl4F/c3-1(7)2(4,5)6/h1H",SRCNPEKLEHSVCL-UHFFFAOYSA-N,?,116.5,101669
101670,354-12-1,1112-05-6,CC(F)(F)C(Cl)(Cl)Cl,"1,1,1-trichloro-2,2-difluoropropane",PUBCHEM_14876272,C3H3Cl3F2,20723,DTXSID70564922,CC(F)(F)C(Cl)(Cl)Cl,"InChI=1S/C3H3Cl3F2/c1-2(7,8)3(4,5)6/h1H3",YXEBARDKWGXGRC-UHFFFAOYSA-N,?,73.0,101670
101673,354-21-2,NOCAS_861890,FC(F)(Cl)C(Cl)Cl,"1,1-Difluoro-1,2,2-trichloroethane",,,20725,DTXSID00861890,FC(F)(Cl)C(Cl)Cl,"InChI=1S/C2HCl3F2/c3-1(4)2(5,6)7/h1H",FQAMAOOEZDRHHB-UHFFFAOYSA-N,?,71.9,101673
101674,354-23-4,354-23-4,FC(Cl)C(F)(F)Cl,"Ethane, 1,2-dichloro-1,1,2-trifluoro-","1,2-dichloro-1,1,2-trifluoroethane","1,2-dichloro-1,1,2-trifluoroethane",20726,DTXSID1042021,FC(Cl)C(F)(F)Cl,"InChI=1S/C2HCl2F3/c3-1(5)2(4,6)7/h1H",YMRMDGSNYHCUCL-UHFFFAOYSA-N,?,29.5,101674
101675,354-25-6,354-25-6,FC(F)C(F)(F)Cl,"ETHANE, 1-CHLORO-1,1,2,2-TETRAFLUORO-","1-chloro-1,1,2,2-tetrafluoroethane","1-chloro-1,1,2,2-tetrafluoroethane",20727,DTXSID1042023,FC(F)C(F)(F)Cl,"InChI=1S/C2HClF4/c3-2(6,7)1(4)5/h1H",JQZFYIGAYWLRCC-UHFFFAOYSA-N,?,-10.0,101675
101677,354-33-6,354-33-6,FC(F)C(F)(F)F,"1,1,1,2,2-PENTAFLUOROETHANE",Pentafluoroethane,"1,1,1,2,2-pentafluoroethane",20729,DTXSID1024251,FC(F)C(F)(F)F,"InChI=1S/C2HF5/c3-1(4)2(5,6)7/h1H",GTLACDSXYULKMZ-UHFFFAOYSA-N,?,-48.5,101677
101678,354-34-7,354-34-7,O=C(F)C(F)(F)F,Trifluoroacetyl fluoride,"Acetyl fluoride, trifluoro-","2,2,2-trifluoroacetyl fluoride",20730,DTXSID6059867,O=C(F)C(F)(F)F,"InChI=1S/C2F4O/c3-1(7)2(4,5)6",DCEPGADSNJKOJK-UHFFFAOYSA-N,?,-59.0,101678
101679,354-38-1,354-38-1,NC(=O)C(F)(F)F,TRIFLUOROACETAMIDE,"Acetamide, 2,2,2-trifluoro-","2,2,2-Trifluoroacetamide",20731,DTXSID1059868,NC(=O)C(F)(F)F,"InChI=1S/C2H2F3NO/c3-2(4,5)1(6)7/h(H2,6,7)",NRKYWOKHZRQRJR-UHFFFAOYSA-N,?,162.5,101679
101681,354-55-2,354-55-2,FC(F)(F)C(F)(F)Br,Bromopentafluoroethane,Bromopentafluoroethane,"1-bromo-1,1,2,2,2-pentafluoroethane",20733,DTXSID90188881,FC(F)(F)C(F)(F)Br,"InChI=1S/C2BrF5/c3-1(4,5)2(6,7)8",USYVEDJTMCGMKN-UHFFFAOYSA-N,?,-21.0,101681
101682,354-56-3,354-56-3,FC(Cl)(Cl)C(Cl)(Cl)Cl,pentachlorofluoroethane,CFC-111,"1,1,1,2,2-pentachloro-2-fluoroethane",20734,DTXSID6059869,FC(Cl)(Cl)C(Cl)(Cl)Cl,"InChI=1S/C2Cl5F/c3-1(4,5)2(6,7)8",KQKBWZDTYSQPMD-UHFFFAOYSA-N,?,135.0,101682
101683,354-58-5,354-58-5,FC(F)(F)C(Cl)(Cl)Cl,"1,1,1-TRICHLORO-2,2,2-TRIFLUOROETHANE","1,1,1-Trichloro-2,2,2-trifluoroethane","1,1,1-trichloro-2,2,2-trifluoroethane",20735,DTXSID5027148,FC(F)(F)C(Cl)(Cl)Cl,"InChI=1S/C2Cl3F3/c3-1(4,5)2(6,7)8",BOSAWIQFTJIYIS-UHFFFAOYSA-N,?,46.1,101683