ChemID,source_casrn,CAS,SMILES,NAME,preferred_name,iupac,MPID,dsstox_substance_id,Canonical_QSARr,InChI_Code_QSARr,InChI Key_QSARr,Salt_Solvent,BP,ID
100008,53-70-3,53-70-3,c1c2c3ccccc3ccc2cc2c3ccccc3ccc21,"DIBENZ(A,H)ANTHRACENE","Dibenz(a,h)anthracene",benzo[k]tetraphene,19098,DTXSID9020409,c1c2c3ccccc3ccc2cc2c3ccccc3ccc21,InChI=1S/C22H14/c1-3-7-19-15(5-1)9-11-17-14-22-18(13-21(17)19)12-10-16-6-2-4-8-20(16)22/h1-14H,LHRCREOYAASXPZ-UHFFFAOYSA-N,?,524.0,100008
100010,54-11-5,54-11-5,CN1CCC[C@H]1c1c[n]ccc1,NICOTINE,Nicotine,C10H14N2,19100,DTXSID1020930,CN1CCCC1c1c[n]ccc1,"InChI=1S/C10H14N2/c1-12-7-3-5-10(12)9-4-2-6-11-8-9/h2,4,6,8,10H,3,5,7H2,1H3",SNICXCGAKADSCV-UHFFFAOYSA-N,?,247.0,100010
100011,54-49-9,54-49-9,C[C@H](N)[C@H](O)c1cc(O)ccc1,METARAMINOL,Metaraminol,"3-[(1R,2S)-2-amino-1-hydroxypropyl]phenol",19101,DTXSID8023268,CC(N)C(O)c1cc(O)ccc1,"InChI=1S/C9H13NO2/c1-6(10)9(12)7-3-2-4-8(11)5-7/h2-6,9,11-12H,10H2,1H3",WXFIGDLSSYIKKV-UHFFFAOYSA-N,?,218.0,100011
100012,55-18-5,55-18-5,CCN(CC)N=O,N-NITROSODIETHYLAMINE,N-Nitrosodiethylamine,N-ethyl-N-nitrosoethanamine,19102,DTXSID2021028,CCN(CC)N=O,"InChI=1S/C4H10N2O/c1-3-6(4-2)5-7/h3-4H2,1-2H3",WBNQDOYYEUMPFS-UHFFFAOYSA-N,?,176.9,100012
100014,55-63-0,55-63-0,[O-][N+](=O)OC(CO[N+]([O-])=O)CO[N+]([O-])=O,"1,2,3-PROPANETRIOL TRINITRATE",Trinitroglycerin,"propane-1,2,3-triyl trinitrate",19104,DTXSID1021407,[O-][N+](=O)OC(CO[N+]([O-])=O)CO[N+]([O-])=O,"InChI=1S/C3H5N3O9/c7-4(8)13-1-3(15-6(11)12)2-14-5(9)10/h3H,1-2H2",SNIOPGDIGTZGOP-UHFFFAOYSA-N,?,250.0,100014
100015,55-91-4,55-91-4,CC(C)OP(=O)(F)OC(C)C,ISOFLUROPHATE,Diisopropyl fluorophosphate,dipropan-2-yl phosphorofluoridate,19105,DTXSID1040667,CC(C)OP(=O)(F)OC(C)C,"InChI=1S/C6H14FO3P/c1-5(2)9-11(7,8)10-6(3)4/h5-6H,1-4H3",MUCZHBLJLSDCSD-UHFFFAOYSA-N,?,183.0,100015
100016,56-23-5,56-23-5,ClC(Cl)(Cl)Cl,CARBON TETRACHLORIDE,Carbon tetrachloride,tetrachloromethane,19106,DTXSID8020250,ClC(Cl)(Cl)Cl,"InChI=1S/CCl4/c2-1(3,4)5",VZGDMQKNWNREIO-UHFFFAOYSA-N,?,76.8,100016
100018,56-55-3,56-55-3,c1c2c3ccccc3ccc2cc2ccccc21,BENZ(A)ANTHRACENE,Benz(a)anthracene,tetraphene,19108,DTXSID5023902,c1c2c3ccccc3ccc2cc2ccccc21,InChI=1S/C18H12/c1-2-7-15-12-18-16(11-14(15)6-1)10-9-13-5-3-4-8-17(13)18/h1-12H,DXBHBZVCASKNBY-UHFFFAOYSA-N,?,437.6,100018
100019,56-81-5,56-81-5,OC(CO)CO,GLYCEROL,Glycerol,"propane-1,2,3-triol",19109,DTXSID9020663,OC(CO)CO,"InChI=1S/C3H8O3/c4-1-3(6)2-5/h3-6H,1-2H2",PEDCQBHIVMGVHV-UHFFFAOYSA-N,?,290.0,100019
100020,57-06-7,57-06-7,C=CCN=C=S,3-ISOTHIOCYANATO-1-PROPENE,Allyl isothiocyanate,3-isothiocyanatoprop-1-ene,19110,DTXSID3020047,C=CCN=C=S,"InChI=1S/C4H5NS/c1-2-3-5-4-6/h2H,1,3H2",ZOJBYZNEUISWFT-UHFFFAOYSA-N,?,152.0,100020
100022,57-11-4,57-11-4,CCCCCCCCCCCCCCCCCC(O)=O,STEARIC ACID,Octadecanoic acid,octadecanoic acid,19112,DTXSID8021642,CCCCCCCCCCCCCCCCCC(O)=O,"InChI=1S/C18H36O2/c1-2-3-4-5-6-7-8-9-10-11-12-13-14-15-16-17-18(19)20/h2-17H2,1H3,(H,19,20)",QIQXTHQIDYTFRH-UHFFFAOYSA-N,?,383.0,100022
100023,57-14-7,57-14-7,CN(C)N,"1,1-DIMETHYLHYDRAZINE","1,1-Dimethylhydrazine","1,1-dimethylhydrazine",19113,DTXSID1020516,CN(C)N,"InChI=1S/C2H8N2/c1-4(2)3/h3H2,1-2H3",RHUYHJGZWVXEHW-UHFFFAOYSA-N,?,63.9,100023
100024,57-15-8,57-15-8,CC(C)(O)C(Cl)(Cl)Cl,"B,B,B-TRICHLORO-T-BUTANOL","1,1,1-Trichloro-2-methyl-2-propanol","1,1,1-trichloro-2-methylpropan-2-ol",19114,DTXSID1041217,CC(C)(O)C(Cl)(Cl)Cl,"InChI=1S/C4H7Cl3O/c1-3(2,8)4(5,6)7/h8H,1-2H3",OSASVXMJTNOKOY-UHFFFAOYSA-N,?,167.0,100024
100026,57-57-8,57-57-8,O=C1CCO1,BETA-PROPIOLACTONE,beta-Propiolactone,oxetan-2-one,19116,DTXSID8021197,O=C1CCO1,InChI=1S/C3H4O2/c4-3-1-2-5-3/h1-2H2,VEZXCJBBBCKRPI-UHFFFAOYSA-N,?,162.0,100026
100027,57-71-6,57-71-6,C/C(=N\O)/C(C)=O,"2,3-Butanedione, monooxime","2,3-Butanedione-2-oxime",(3E)-3-(hydroxyimino)butan-2-one,19117,DTXSID7024669,CC(N=O)C(C)=O,"InChI=1S/C4H7NO2/c1-3(5-7)4(2)6/h3H,1-2H3",HWVHPDJSBJNKCK-UHFFFAOYSA-N,?,185.5,100027
100028,57-88-5,57-88-5,CC(C)CCC[C@@H](C)[C@H]1CC[C@H]2[C@@H]3CC=C4C[C@@H](O)CC[C@]4(C)[C@H]3CC[C@]12C,CHOLESTEROL,Cholesterol,(3beta)-cholest-5-en-3-ol,19118,DTXSID3022401,CC(C)CCCC(C)C1CCC2C3CC=C4CC(O)CCC4(C)C3CCC12C,"InChI=1S/C27H46O/c1-18(2)7-6-8-19(3)23-11-12-24-22-10-9-20-17-21(28)13-15-26(20,4)25(22)14-16-27(23,24)5/h9,18-19,21-25,28H,6-8,10-17H2,1-5H3",HVYWMOMLDIMFJA-UHFFFAOYSA-N,?,360.0,100028
100030,59-26-7,59-26-7,CCN(CC)C(=O)c1ccc[n]c1,NIKETHAMIDE,"N,N-Diethylnicotinamide","N,N-diethylpyridine-3-carboxamide",19119,DTXSID9046524,CCN(CC)C(=O)c1ccc[n]c1,"InChI=1S/C10H14N2O/c1-3-12(4-2)10(13)9-6-5-7-11-8-9/h5-8H,3-4H2,1-2H3",NCYVXEGFNDZQCU-UHFFFAOYSA-N,?,298.0,100030
100031,59-49-4,59-49-4,O=C1Nc2ccccc2O1,O-PHENYLENE CARBAMATE,2-Benzoxazolinone,"1,3-benzoxazol-2(3H)-one",19120,DTXSID9049324,O=C1Nc2ccccc2O1,"InChI=1S/C7H5NO2/c9-7-8-5-3-1-2-4-6(5)10-7/h1-4H,(H,8,9)",ASSKVPFEZFQQNQ-UHFFFAOYSA-N,?,335.0,100031
100032,59-50-7,59-50-7,Cc1cc(O)ccc1Cl,3-METHYL-4-CHLOROPHENOL,4-Chloro-3-methylphenol,4-chloro-3-methylphenol,19121,DTXSID4021717,Cc1cc(O)ccc1Cl,"InChI=1S/C7H7ClO/c1-5-4-6(9)2-3-7(5)8/h2-4,9H,1H3",CFKMVGJGLGKFKI-UHFFFAOYSA-N,?,235.0,100032
100035,60-09-3,60-09-3,Nc1ccc(cc1)/N=N/c1ccccc1,P-PHENYLAZOANILINE,4-Aminoazobenzene,4-[(E)-phenyldiazenyl]aniline,19123,DTXSID6024460,Nc1ccc(cc1)N=Nc1ccccc1,"InChI=1S/C12H11N3/c13-10-6-8-12(9-7-10)15-14-11-4-2-1-3-5-11/h1-9H,13H2/b15-14+",QPQKUYVSJWQSDY-CCEZHUSRSA-N,?,366.0,100035
100036,60-12-8,60-12-8,OCCc1ccccc1,2-PHENYLETHANOL,2-Phenylethanol,2-phenylethanol,19124,DTXSID9026342,OCCc1ccccc1,"InChI=1S/C8H10O/c9-7-6-8-4-2-1-3-5-8/h1-5,9H,6-7H2",WRMNZCZEMHIOCP-UHFFFAOYSA-N,?,218.2,100036
100037,60-24-2,60-24-2,OCCS,"Ethanol, 2-mercapto-",2-Mercaptoethanol,2-sulfanylethanol,19125,DTXSID4026343,OCCS,"InChI=1S/C2H6OS/c3-1-2-4/h3-4H,1-2H2",DGVVWUTYPXICAM-UHFFFAOYSA-N,?,158.0,100037
100039,60-33-3,60-33-3,CCCCC/C=C\C/C=C\CCCCCCCC(O)=O,LINOLEIC ACID,Linoleic acid,"(9Z,12Z)-octadeca-9,12-dienoic acid",19127,DTXSID2025505,CCCCCC=CCC=CCCCCCCCC(O)=O,"InChI=1S/C18H32O2/c1-2-3-4-5-6-7-8-9-10-11-12-13-14-15-16-17-18(19)20/h6-7,9-10H,2-5,8,11-17H2,1H3,(H,19,20)/b7-6+,10-9+",OYHQOLUKZRVURQ-AVQMFFATSA-N,?,365.2,100039
100040,60-34-4,60-34-4,CNN,METHYL HYDRAZINE,Methylhydrazine,methylhydrazine,19128,DTXSID4020874,CNN,"InChI=1S/CH6N2/c1-3-2/h3H,2H2,1H3",HDZGCSFEDULWCS-UHFFFAOYSA-N,?,87.5,100040
100041,60-35-5,60-35-5,CC(N)=O,ACETAMIDE,Acetamide,acetamide,19129,DTXSID7020005,CC(N)=O,"InChI=1S/C2H5NO/c1-2(3)4/h1H3,(H2,3,4)",DLFVBJFMPXGRIB-UHFFFAOYSA-N,?,222.0,100041
100043,60-57-1,60-57-1,"ClC1(Cl)[C@@]2(Cl)[C@@H]3[C@@H]4C[C@@H]([C@H]5O[C@H]54)[C@@H]3[C@]1(Cl)C(Cl)=C2Cl |o1:3,5,6,8,9,11,12,13|",DIELDRIN,Dieldrin,,19131,DTXSID9020453,ClC1(Cl)C2(Cl)C3C4CC(C5OC54)C3C1(Cl)C(Cl)=C2Cl,"InChI=1S/C12H8Cl6O/c13-8-9(14)11(16)5-3-1-2(6-7(3)19-6)4(5)10(8,15)12(11,17)18/h2-7H,1H2",DFBKLUNHFCTMDC-UHFFFAOYSA-N,?,330.0,100043
100044,60-80-0,60-80-0,CN1C(C)=CC(=O)N1c1ccccc1,ANTIPYRINE,Phenazone,"1,5-dimethyl-2-phenyl-1,2-dihydro-3H-pyrazol-3-one",19132,DTXSID6021117,CN1C(C)=CC(=O)N1c1ccccc1,"InChI=1S/C11H12N2O/c1-9-8-11(14)13(12(9)2)10-6-4-3-5-7-10/h3-8H,1-2H3",VEQOALNAAJBPNY-UHFFFAOYSA-N,?,319.0,100044
100045,62-44-2,62-44-2,CC(=O)Nc1ccc(cc1)OCC,P-PHENACETIN,Phenacetin,N-(4-ethoxyphenyl)acetamide,19133,DTXSID1021116,CC(=O)Nc1ccc(cc1)OCC,"InChI=1S/C10H13NO2/c1-3-13-10-6-4-9(5-7-10)11-8(2)12/h4-7H,3H2,1-2H3,(H,11,12)",CPJSUEIXXCENMM-UHFFFAOYSA-N,?,243.5,100045
100047,62-53-3,62-53-3,Nc1ccccc1,ANILINE,Aniline,aniline,19135,DTXSID8020090,Nc1ccccc1,"InChI=1S/C6H7N/c7-6-4-2-1-3-5-6/h1-5H,7H2",PAYRUJLWNCNPSJ-UHFFFAOYSA-N,?,184.1,100047
100048,62-73-7,62-73-7,COP(=O)(OC=C(Cl)Cl)OC,DICHLORVOS,Dichlorvos,"2,2-dichloroethenyl dimethyl phosphate",19136,DTXSID5020449,COP(=O)(OC=C(Cl)Cl)OC,"InChI=1S/C4H7Cl2O4P/c1-8-11(7,9-2)10-3-4(5)6/h3H,1-2H3",OEBRKCOSUFCWJD-UHFFFAOYSA-N,?,234.1,100048
100049,62-75-9,62-75-9,CN(C)N=O,N-NITROSODIMETHYLAMINE,N-Nitrosodimethylamine,N-methyl-N-nitrosomethanamine,19137,DTXSID7021029,CN(C)N=O,InChI=1S/C2H6N2O/c1-4(2)3-5/h1-2H3,UMFJAHHVKNCGLG-UHFFFAOYSA-N,?,154.0,100049
100051,63-75-2,63-75-2,CN1CC(=CCC1)C(=O)OC,ARECOLINE,Arecoline,"methyl 1-methyl-1,2,5,6-tetrahydropyridine-3-carboxylate",19139,DTXSID3022617,CN1CC(=CCC1)C(=O)OC,"InChI=1S/C8H13NO2/c1-9-5-3-4-7(6-9)8(10)11-2/h4H,3,5-6H2,1-2H3",HJJPJSXJAXAIPN-UHFFFAOYSA-N,?,209.0,100051
100052,64-04-0,64-04-0,NCCc1ccccc1,2-PHENYLETHYLAMINE,Phenethylamine,2-phenylethanamine,19140,DTXSID5058773,NCCc1ccccc1,"InChI=1S/C8H11N/c9-7-6-8-4-2-1-3-5-8/h1-5H,6-7,9H2",BHHGXPLMPWCGHP-UHFFFAOYSA-N,?,197.5,100052
100053,64-10-8,64-10-8,NC(=O)Nc1ccccc1,PHENYLUREA,1-Phenylurea,C7H8N2O,19141,DTXSID8042507,NC(=O)Nc1ccccc1,"InChI=1S/C7H8N2O/c8-7(10)9-6-4-2-1-3-5-6/h1-5H,(H3,8,9,10)",LUBJCRLGQSPQNN-UHFFFAOYSA-N,?,238.0,100053
100055,64-18-6,64-18-6,OC=O,FORMIC ACID,Formic acid,formic acid,19143,DTXSID2024115,OC=O,"InChI=1S/CH2O2/c2-1-3/h1H,(H,2,3)",BDAGIHXWWSANSR-UHFFFAOYSA-N,?,101.0,100055
100056,64-19-7,64-19-7,CC(O)=O,ACETIC ACID,Acetic acid,acetic acid,19144,DTXSID5024394,CC(O)=O,"InChI=1S/C2H4O2/c1-2(3)4/h1H3,(H,3,4)",QTBSBXVTEAMEQO-UHFFFAOYSA-N,?,117.9,100056
100057,64-67-5,64-67-5,CCOS(=O)(=O)OCC,DIETHYL SULFATE,Diethyl sulfate,diethyl sulfate,19145,DTXSID1024045,CCOS(=O)(=O)OCC,"InChI=1S/C4H10O4S/c1-3-7-9(5,6)8-4-2/h3-4H2,1-2H3",DENRZWYUOJLTMF-UHFFFAOYSA-N,?,208.0,100057
100059,66-25-1,66-25-1,CCCCCC=O,HEXANAL,Hexanal,hexanal,19147,DTXSID2021604,CCCCCC=O,"InChI=1S/C6H12O/c1-2-3-4-5-6-7/h6H,2-5H2,1H3",JARKCYVAAOWBJS-UHFFFAOYSA-N,?,131.0,100059
100060,66-27-3,66-27-3,COS(C)(=O)=O,METHYL METHANE SULFONATE,Methyl methanesulfonate,methyl methanesulfonate,19148,DTXSID7020845,COS(C)(=O)=O,"InChI=1S/C2H6O3S/c1-5-6(2,3)4/h1-2H3",MBABOKRGFJTBAE-UHFFFAOYSA-N,?,203.0,100060
100061,66-77-3,66-77-3,O=Cc1cccc2ccccc21,1-Naphthalenecarboxaldehyde,1-Naphthaldehyde,naphthalene-1-carbaldehyde,19149,DTXSID5058775,O=Cc1cccc2ccccc21,InChI=1S/C11H8O/c12-8-10-6-3-5-9-4-1-2-7-11(9)10/h1-8H,SQAINHDHICKHLX-UHFFFAOYSA-N,?,292.0,100061
100063,67-56-1,67-56-1,CO,METHANOL,Methanol,methanol,19151,DTXSID2021731,CO,"InChI=1S/CH4O/c1-2/h2H,1H3",OKKJLVBELUTLKV-UHFFFAOYSA-N,?,64.7,100063
100064,67-62-9,67-62-9,CON,O-METHYLHYDROXYLAMINE,Methoxyamine,(aminooxy)methane,19152,DTXSID8043862,CON,"InChI=1S/CH5NO/c1-3-2/h2H2,1H3",GMPKIPWJBDOURN-UHFFFAOYSA-N,?,49.5,100064
100065,67-63-0,67-63-0,CC(C)O,ISOPROPANOL,Isopropanol,propan-2-ol,19153,DTXSID7020762,CC(C)O,"InChI=1S/C3H8O/c1-3(2)4/h3-4H,1-2H3",KFZMGEQAYNKOFK-UHFFFAOYSA-N,?,82.3,100065
100067,67-66-3,67-66-3,ClC(Cl)Cl,CHLOROFORM,Chloroform,trichloromethane,19155,DTXSID1020306,ClC(Cl)Cl,InChI=1S/CHCl3/c2-1(3)4/h1H,HEDRZPFGACZZDS-UHFFFAOYSA-N,?,61.1,100067
100068,67-68-5,67-68-5,CS(C)=O,DIMETHYL SULFOXIDE,Dimethyl sulfoxide,C2H6OS,19156,DTXSID2021735,CS(C)=O,InChI=1S/C2H6OS/c1-4(2)3/h1-2H3,IAZDPXIOMUYVGZ-UHFFFAOYSA-N,?,189.0,100068
100069,67-71-0,67-71-0,CS(C)(=O)=O,DIMETHYL SULFONE,Dimethyl sulfone,dimethyl sulfone,19157,DTXSID4043937,CS(C)(=O)=O,"InChI=1S/C2H6O2S/c1-5(2,3)4/h1-2H3",HHVIBTZHLRERCL-UHFFFAOYSA-N,?,238.0,100069
100071,70-30-4,70-30-4,Oc1c(Cc2c(Cl)c(Cl)cc(Cl)c2O)c(Cl)c(Cl)cc1Cl,HEXACHLOROPHENE,Hexachlorophene,"2,2'-methanediylbis(3,4,6-trichlorophenol)",19159,DTXSID6020690,Oc1c(Cc2c(Cl)c(Cl)cc(Cl)c2O)c(Cl)c(Cl)cc1Cl,"InChI=1S/C13H6Cl6O2/c14-6-2-8(16)12(20)4(10(6)18)1-5-11(19)7(15)3-9(17)13(5)21/h2-3,20-21H,1H2",ACGUYXCXAPNIKK-UHFFFAOYSA-N,?,479.0,100071
100072,70-34-8,70-34-8,[O-][N+](=O)c1cc(ccc1F)[N+]([O-])=O,"1-FLUORO-2,4-DINITROBENZENE","1-Fluoro-2,4-dinitrobenzene","1-fluoro-2,4-dinitrobenzene",19160,DTXSID8025331,[O-][N+](=O)c1cc(ccc1F)[N+]([O-])=O,InChI=1S/C6H3FN2O4/c7-5-2-1-4(8(10)11)3-6(5)9(12)13/h1-3H,LOTKRQAVGJMPNV-UHFFFAOYSA-N,?,296.0,100072
100073,71-23-8,71-23-8,CCCO,1-PROPANOL,1-Propanol,propan-1-ol,19161,DTXSID2021739,CCCO,"InChI=1S/C3H8O/c1-2-3-4/h4H,2-3H2,1H3",BDERNNFJNOPAEC-UHFFFAOYSA-N,?,97.2,100073
100075,71-41-0,71-41-0,CCCCCO,1-PENTANOL,1-Pentanol,pentan-1-ol,19163,DTXSID6021741,CCCCCO,"InChI=1S/C5H12O/c1-2-3-4-5-6/h6H,2-5H2,1H3",AMQJEAYHLZJPGS-UHFFFAOYSA-N,?,137.9,100075
100076,71-43-2,71-43-2,c1ccccc1,BENZENE,Benzene,benzene,19164,DTXSID3039242,c1ccccc1,InChI=1S/C6H6/c1-2-4-6-5-3-1/h1-6H,UHOVQNZJYSORNB-UHFFFAOYSA-N,?,80.0,100076
100077,71-55-6,71-55-6,CC(Cl)(Cl)Cl,"1,1,1-TRICHLOROETHANE","1,1,1-Trichloroethane","1,1,1-trichloroethane",19165,DTXSID0021381,CC(Cl)(Cl)Cl,"InChI=1S/C2H3Cl3/c1-2(3,4)5/h1H3",UOCLXMDMGBRAIB-UHFFFAOYSA-N,?,74.0,100077
100079,72-48-0,72-48-0,Oc1ccc2c(C(=O)c3ccccc3C2=O)c1O,ALIZARINE,Alizarin,"1,2-dihydroxyanthracene-9,10-dione",19167,DTXSID5045960,Oc1ccc2c(C(=O)c3ccccc3C2=O)c1O,"InChI=1S/C14H8O4/c15-10-6-5-9-11(14(10)18)13(17)8-4-2-1-3-7(8)12(9)16/h1-6,15,18H",RGCKGOZRHPZPFP-UHFFFAOYSA-N,?,430.0,100079
100080,72-54-8,72-54-8,ClC(Cl)C(c1ccc(Cl)cc1)c1ccc(Cl)cc1,"P,P'-DDD","p,p'-DDD","1,1'-(2,2-dichloroethane-1,1-diyl)bis(4-chlorobenzene)",19168,DTXSID4020373,ClC(Cl)C(c1ccc(Cl)cc1)c1ccc(Cl)cc1,"InChI=1S/C14H10Cl4/c15-11-5-1-9(2-6-11)13(14(17)18)10-3-7-12(16)8-4-10/h1-8,13-14H",AHJKRLASYNVKDZ-UHFFFAOYSA-N,?,350.0,100080
100081,72-55-9,72-55-9,ClC(Cl)=C(c1ccc(Cl)cc1)c1ccc(Cl)cc1,"P,P'-DDE","p,p'-DDE","1,1'-(2,2-dichloroethene-1,1-diyl)bis(4-chlorobenzene)",19169,DTXSID9020374,ClC(Cl)=C(c1ccc(Cl)cc1)c1ccc(Cl)cc1,InChI=1S/C14H8Cl4/c15-11-5-1-9(2-6-11)13(14(17)18)10-3-7-12(16)8-4-10/h1-8H,UCNVFOCBFJOQAL-UHFFFAOYSA-N,?,336.0,100081
100083,74-83-9,74-83-9,CBr,METHYL BROMIDE,Methyl bromide,bromomethane,19171,DTXSID8020832,CBr,InChI=1S/CH3Br/c1-2/h1H3,GZUXJHMPEANEGY-UHFFFAOYSA-N,?,3.5,100083
100084,74-84-0,74-84-0,CC,ETHANE,Ethane,ethane,19172,DTXSID6026377,CC,InChI=1S/C2H6/c1-2/h1-2H3,OTMSDBZUPAUEDD-UHFFFAOYSA-N,?,-88.6,100084
100085,74-85-1,74-85-1,C=C,ETHYLENE,Ethylene,ethene,19173,DTXSID1026378,C=C,InChI=1S/C2H4/c1-2/h1-2H2,VGGSQFUCUMXWEO-UHFFFAOYSA-N,?,-103.7,100085
100087,74-87-3,74-87-3,CCl,METHYL CHLORIDE,Chloromethane,chloromethane,19175,DTXSID0021541,CCl,InChI=1S/CH3Cl/c1-2/h1H3,NEHMKBQYUWJMIP-UHFFFAOYSA-N,?,-24.0,100087
100088,74-88-4,74-88-4,CI,METHYL IODIDE,Methyl iodide,iodomethane,19176,DTXSID0024187,CI,InChI=1S/CH3I/c1-2/h1H3,INQOMBQAUSQDDS-UHFFFAOYSA-N,?,42.5,100088
100089,74-89-5,74-89-5,CN,METHYLAMINE,Methylamine,methanamine,19177,DTXSID7025683,CN,"InChI=1S/CH5N/c1-2/h2H2,1H3",BAVYZALUXZFZLV-UHFFFAOYSA-N,?,-6.3,100089
100091,74-93-1,74-93-1,CS,METHANETHIOL,Methanethiol,methanethiol,19179,DTXSID5026382,CS,"InChI=1S/CH4S/c1-2/h2H,1H3",LSDPWZHWYPCBBB-UHFFFAOYSA-N,?,5.9,100091
100092,74-95-3,74-95-3,BrCBr,DIBROMOMETHANE,Dibromomethane,dibromomethane,19180,DTXSID4021557,BrCBr,InChI=1S/CH2Br2/c2-1-3/h1H2,FJBFPHVGVWTDIP-UHFFFAOYSA-N,?,97.0,100092
100093,74-96-4,74-96-4,CCBr,BROMOETHANE,Bromoethane,bromoethane,19181,DTXSID6020199,CCBr,"InChI=1S/C2H5Br/c1-2-3/h2H2,1H3",RDHPKYGYEGBMSE-UHFFFAOYSA-N,?,38.5,100093
100095,74-98-6,74-98-6,CCC,PROPANE,Propane,propane,19183,DTXSID5026386,CCC,"InChI=1S/C3H8/c1-3-2/h3H2,1-2H3",ATUOYWHBWRKTHZ-UHFFFAOYSA-N,?,-42.1,100095
100096,74-99-7,74-99-7,CC#C,PROPYNE,1-Propyne,prop-1-yne,19184,DTXSID0026387,CC#C,"InChI=1S/C3H4/c1-3-2/h1H,2H3",MWWATHDPGQKSAR-UHFFFAOYSA-N,?,-23.2,100096
100097,75-00-3,75-00-3,CCCl,CHLOROETHANE,Chloroethane,chloroethane,19185,DTXSID1020302,CCCl,"InChI=1S/C2H5Cl/c1-2-3/h2H2,1H3",HRYZWHHZPQKTII-UHFFFAOYSA-N,?,12.3,100097
100099,75-02-5,75-02-5,C=CF,VINYLFLUORIDE,Vinyl fluoride,fluoroethene,19187,DTXSID3021435,C=CF,"InChI=1S/C2H3F/c1-2-3/h2H,1H2",XUCNUKMRBVNAPB-UHFFFAOYSA-N,?,-72.0,100099
100100,75-03-6,75-03-6,CCI,IODOETHANE,"Ethane, iodo-",Iodoethane,19188,DTXSID9058783,CCI,"InChI=1S/C2H5I/c1-2-3/h2H2,1H3",HVTICUPFWKNHNG-UHFFFAOYSA-N,?,72.5,100100
100101,75-04-7,75-04-7,CCN,ETHYLAMINE,Ethanamine,ethanamine,19189,DTXSID8025678,CCN,"InChI=1S/C2H7N/c1-2-3/h2-3H2,1H3",QUSNBJAOOMFDIB-UHFFFAOYSA-N,?,16.6,100101
100103,75-07-0,75-07-0,CC=O,ACETALDEHYDE,Acetaldehyde,acetaldehyde,19191,DTXSID5039224,CC=O,"InChI=1S/C2H4O/c1-2-3/h2H,1H3",IKHGUXGNUITLKF-UHFFFAOYSA-N,?,20.1,100103
100104,75-08-1,75-08-1,CCS,ETHYL MERCAPTAN,Ethanethiol,ethanethiol,19192,DTXSID9026394,CCS,"InChI=1S/C2H6S/c1-2-3/h3H,2H2,1H3",DNJIEGIFACGWOD-UHFFFAOYSA-N,?,35.1,100104
100105,75-09-2,75-09-2,ClCCl,DICHLOROMETHANE,Dichloromethane,dichloromethane,19193,DTXSID0020868,ClCCl,InChI=1S/CH2Cl2/c2-1-3/h1H2,YMWUJEATGCHHMB-UHFFFAOYSA-N,?,40.0,100105
100107,75-11-6,75-11-6,ICI,METHYLENE IODIDE,Methylene iodide,Diiodomethane,19195,DTXSID4058784,ICI,InChI=1S/CH2I2/c2-1-3/h1H2,NZZFYRREKKOMAT-UHFFFAOYSA-N,?,182.0,100107
100108,75-12-7,75-12-7,NC=O,FORMAMIDE,Formamide,formamide,19196,DTXSID8025337,NC=O,"InChI=1S/CH3NO/c2-1-3/h1H,(H2,2,3)",ZHNUHDYFZUAESO-UHFFFAOYSA-N,?,220.0,100108
100109,75-15-0,75-15-0,S=C=S,CARBON DISULFIDE,Carbon disulfide,methanedithione,19197,DTXSID6023947,S=C=S,InChI=1S/CS2/c2-1-3,QGJOPFRUJISHPQ-UHFFFAOYSA-N,?,46.0,100109
100111,75-19-4,75-19-4,C1CC1,CYCLOPROPANE,Cyclopropane,CYCLOPROPANE,19199,DTXSID4058786,C1CC1,InChI=1S/C3H6/c1-2-3-1/h1-3H2,LVZWSLJZHVFIQJ-UHFFFAOYSA-N,?,-32.8,100111
100112,75-21-8,75-21-8,C1CO1,ETHYLENE OXIDE,Ethylene oxide,oxirane,19200,DTXSID0020600,C1CO1,InChI=1S/C2H4O/c1-2-3-1/h1-2H2,IAYPIBMASNFSPL-UHFFFAOYSA-N,?,10.6,100112
100115,75-25-2,75-25-2,BrC(Br)Br,BROMOFORM,Bromoform,tribromomethane,19201,DTXSID1021374,BrC(Br)Br,InChI=1S/CHBr3/c2-1(3)4/h1H,DIKBFYAXUHHXCS-UHFFFAOYSA-N,?,149.1,100115
100117,75-27-4,75-27-4,ClC(Cl)Br,BROMODICHLOROMETHANE,Bromodichloromethane,bromo(dichloro)methane,19203,DTXSID1020198,ClC(Cl)Br,InChI=1S/CHBrCl2/c2-1(3)4/h1H,FMWLUWPQPKEARP-UHFFFAOYSA-N,?,90.0,100117
100118,75-28-5,75-28-5,CC(C)C,2-METHYLPROPANE,Isobutane,2-methylpropane,19204,DTXSID1026401,CC(C)C,"InChI=1S/C4H10/c1-4(2)3/h4H,1-3H3",NNPPMTNAJDCUHE-UHFFFAOYSA-N,?,-11.7,100118
100119,75-29-6,75-29-6,CC(C)Cl,2-CHLOROPROPANE,2-Chloropropane,2-chloropropane,19205,DTXSID6047739,CC(C)Cl,"InChI=1S/C3H7Cl/c1-3(2)4/h3H,1-2H3",ULYZAYCEDJDHCC-UHFFFAOYSA-N,?,35.7,100119
100121,75-31-0,75-31-0,CC(C)N,ISOPROPYLAMINE,Isopropylamine,propan-2-amine,19207,DTXSID2025682,CC(C)N,"InChI=1S/C3H9N/c1-3(2)4/h3H,4H2,1-2H3",JJWLVOIRVHMVIS-UHFFFAOYSA-N,?,31.7,100121
100122,75-33-2,75-33-2,CC(C)S,2-PROPANETHIOL,Isopropyl mercaptan,propane-2-thiol,19208,DTXSID1025481,CC(C)S,"InChI=1S/C3H8S/c1-3(2)4/h3-4H,1-2H3",KJRCEJOSASVSRA-UHFFFAOYSA-N,?,52.5,100122
100123,75-34-3,75-34-3,CC(Cl)Cl,"1,1-DICHLOROETHANE","1,1-Dichloroethane","1,1-dichloroethane",19209,DTXSID1020437,CC(Cl)Cl,"InChI=1S/C2H4Cl2/c1-2(3)4/h2H,1H3",SCYULBFZEHDVBN-UHFFFAOYSA-N,?,57.4,100123
100125,75-36-5,75-36-5,CC(=O)Cl,ACETYLCHLORIDE,Acetyl chloride,acetyl chloride,19211,DTXSID2023852,CC(=O)Cl,InChI=1S/C2H3ClO/c1-2(3)4/h1H3,WETWJCDKMRHUPV-UHFFFAOYSA-N,?,50.7,100125
100126,75-37-6,75-37-6,CC(F)F,"1,1-DIFLUOROETHANE","1,1-Difluoroethane","1,1-difluoroethane",19212,DTXSID0024050,CC(F)F,"InChI=1S/C2H4F2/c1-2(3)4/h2H,1H3",NPNPZTNLOVBDOC-UHFFFAOYSA-N,?,-24.9,100126
100127,75-38-7,75-38-7,C=C(F)F,"1,1-DIFLUOROETHENE",Vinylidene fluoride,"1,1-difluoroethene",19213,DTXSID3021439,C=C(F)F,InChI=1S/C2H2F2/c1-2(3)4/h1H2,BQCIDUSAKPWEOX-UHFFFAOYSA-N,?,-85.7,100127
100129,75-44-5,75-44-5,O=C(Cl)Cl,PHOSGENE,Phosgene,carbonyl dichloride,19215,DTXSID0024260,O=C(Cl)Cl,InChI=1S/CCl2O/c2-1(3)4,YGYAWVDWMABLBF-UHFFFAOYSA-N,?,8.2,100129
100130,75-45-6,75-45-6,FC(F)Cl,CHLORODIFLUOROMETHANE,Chlorodifluoromethane,chloro(difluoro)methane,19216,DTXSID6020301,FC(F)Cl,InChI=1S/CHClF2/c2-1(3)4/h1H,VOPWNXZWBYDODV-UHFFFAOYSA-N,?,-40.7,100130
100131,75-46-7,75-46-7,FC(F)F,TRIFLUOROMETHANE,Trifluoromethane,trifluoromethane,19217,DTXSID0026410,FC(F)F,InChI=1S/CHF3/c2-1(3)4/h1H,XPDWGBQVDMORPB-UHFFFAOYSA-N,?,-82.1,100131
100133,75-50-3,75-50-3,CN(C)C,TRIMETHYLAMINE,Trimethylamine,"N,N-dimethylmethanamine",19219,DTXSID2026238,CN(C)C,InChI=1S/C3H9N/c1-4(2)3/h1-3H3,GETQZCLCWQTVFV-UHFFFAOYSA-N,?,2.87,100133
100134,75-52-5,75-52-5,C[N+]([O-])=O,NITROMETHANE,Nitromethane,nitromethane,19220,DTXSID2020977,C[N+]([O-])=O,InChI=1S/CH3NO2/c1-2(3)4/h1H3,LYGJENNIWJXYER-UHFFFAOYSA-N,?,101.1,100134
100135,75-54-7,75-54-7,C[SiH](Cl)Cl,DICHLOROMETHYLSILANE,Methyldichlorosilane,dichloro(methyl)silane,19221,DTXSID5026413,C[SiH](Cl)Cl,"InChI=1S/CH4Cl2Si/c1-4(2)3/h4H,1H3",NWKBSEBOBPHMKL-UHFFFAOYSA-N,?,41.0,100135