ChemID,source_casrn,CAS,SMILES,NAME,preferred_name,iupac,MPID,dsstox_substance_id,Canonical_QSARr,InChI_Code_QSARr,InChI Key_QSARr,Salt_Solvent,BP,ID
101364,123-95-5,123-95-5,CCCCCCCCCCCCCCCCCC(=O)OCCCC,N-BUTYL STEARATE,"Octadecanoic acid, butyl ester",butyl octadecanoate,20427,DTXSID5027013,CCCCCCCCCCCCCCCCCC(=O)OCCCC,"InChI=1S/C22H44O2/c1-3-5-7-8-9-10-11-12-13-14-15-16-17-18-19-20-22(23)24-21-6-4-2/h3-21H2,1-2H3",ULBTUVJTXULMLP-UHFFFAOYSA-N,?,343.0,101364
101368,124-05-0,124-05-0,O=C(Cl)OCCOC(=O)Cl,Ethylene bis chloroformate,"1,2-Bis((chlorocarbonyl)oxy)ethane","ethane-1,2-diyl dicarbonochloridate",20431,DTXSID2051631,O=C(Cl)OCCOC(=O)Cl,InChI=1S/C4H4Cl2O4/c5-3(7)9-1-2-10-4(6)8/h1-2H2,FMACOGSACRRIMK-UHFFFAOYSA-N,?,183.0,101368
101372,124-10-7,124-10-7,CCCCCCCCCCCCCC(=O)OC,METHYL MYRISTATE,Methyl tetradecanoate,methyl tetradecanoate,20435,DTXSID5027019,CCCCCCCCCCCCCC(=O)OC,"InChI=1S/C15H30O2/c1-3-4-5-6-7-8-9-10-11-12-13-14-15(16)17-2/h3-14H2,1-2H3",ZAZKJZBWRNNLDS-UHFFFAOYSA-N,?,295.0,101372
101376,124-16-3,124-16-3,CCCCOCCOCC(C)O,1-(2-Butoxyethoxy)-2-propanol,1-(2-Butoxyethoxy)-2-propanol,1-(2-butoxyethoxy)propan-2-ol,20439,DTXSID1041213,CCCCOCCOCC(C)O,"InChI=1S/C9H20O3/c1-3-4-5-11-6-7-12-8-9(2)10/h9-10H,3-8H2,1-2H3",NPMRPDRLIHYOBW-UHFFFAOYSA-N,?,230.0,101376
101380,124-22-1,124-22-1,CCCCCCCCCCCCN,N-DODECYLAMINE,1-Dodecanamine,dodecan-1-amine,20443,DTXSID3021984,CCCCCCCCCCCCN,"InChI=1S/C12H27N/c1-2-3-4-5-6-7-8-9-10-11-12-13/h2-13H2,1H3",JRBPAEWTRLWTQC-UHFFFAOYSA-N,?,259.0,101380
101384,124-40-3,124-40-3,CNC,DIMETHYLAMINE,Dimethylamine,N-methylmethanamine,20447,DTXSID5024057,CNC,"InChI=1S/C2H7N/c1-3-2/h3H,1-2H3",ROSDSFDQCJNGOL-UHFFFAOYSA-N,?,6.8,101384
101388,124-70-9,124-70-9,C[Si](Cl)(Cl)C=C,"Silane, dichloroethenylmethyl-","Silane, dichloroethenylmethyl-",dichloro(ethenyl)methylsilane,20451,DTXSID3027033,C[Si](Cl)(Cl)C=C,"InChI=1S/C3H6Cl2Si/c1-3-6(2,4)5/h3H,1H2,2H3",YLJJAVFOBDSYAN-UHFFFAOYSA-N,?,92.5,101388
101392,126-30-7,126-30-7,CC(C)(CO)CO,"1,3-Propanediol, 2,2-dimethyl-","2,2-Dimethylpropane-1,3-diol","2,2-dimethylpropane-1,3-diol",20455,DTXSID8027036,CC(C)(CO)CO,"InChI=1S/C5H12O2/c1-5(2,3-6)4-7/h6-7H,3-4H2,1-2H3",SLCVBVWXLSEKPL-UHFFFAOYSA-N,?,208.0,101392
101396,126-73-8,126-73-8,CCCCOP(=O)(OCCCC)OCCCC,TRIBUTYLPHOSPHATE,Tributyl phosphate,tributyl phosphate,20459,DTXSID3021986,CCCCOP(=O)(OCCCC)OCCCC,"InChI=1S/C12H27O4P/c1-4-7-10-14-17(13,15-11-8-5-2)16-12-9-6-3/h4-12H2,1-3H3",STCOOQWBFONSKY-UHFFFAOYSA-N,?,289.0,101396
101400,127-00-4,127-00-4,CC(O)CCl,1-CHLORO-2-PROPANOL,1-Chloro-2-propanol,1-chloropropan-2-ol,20463,DTXSID5020285,CC(O)CCl,"InChI=1S/C3H7ClO/c1-3(5)2-4/h3,5H,2H2,1H3",YYTSGNJTASLUOY-UHFFFAOYSA-N,?,127.0,101400
101404,127-21-9,127-21-9,O=C(C(F)(F)Cl)C(F)(F)Cl,"1,3-Dichlorotetrafluoroacetone","2-Propanone, 1,3-dichloro-1,1,3,3-tetrafluoro-","1,3-dichloro-1,1,3,3-tetrafluoropropan-2-one",20467,DTXSID1073159,O=C(C(F)(F)Cl)C(F)(F)Cl,"InChI=1S/C3Cl2F4O/c4-2(6,7)1(10)3(5,8)9",QRKKTXWUDLJYCV-UHFFFAOYSA-N,?,44.5,101404
101408,127-91-3|18172-67-3,127-91-3|18172-67-3,CC1(C)C2CC1CCC2=C,"beta-PINENE, (1S)-(-)-beta-Pinene",beta-Pinene,"6,6-dimethyl-2-methylidenebicyclo[3.1.1]heptane",20471|24306,DTXSID7027049|DTXSID1041184,CC1(C)C2CC1CCC2=C,"InChI=1S/C10H16/c1-7-4-5-8-6-9(7)10(8,2)3/h8-9H,1,4-6H2,2-3H3",WTARULDDTDQWMU-UHFFFAOYSA-N,?,166.0,101408
101413,129-00-0,129-00-0,c1cc2cccc3ccc4cccc1c4c32,PYRENE,Pyrene,pyrene,20475,DTXSID3024289,c1cc2cccc3ccc4cccc1c4c32,InChI=1S/C16H10/c1-3-11-7-9-13-5-2-6-14-10-8-12(4-1)15(11)16(13)14/h1-10H,BBEAQIROQSPTKN-UHFFFAOYSA-N,?,404.0,101413
101417,131-58-8,131-58-8,Cc1ccccc1C(=O)c1ccccc1,"Methanone, (2-methylphenyl)phenyl-","Methanone, (2-methylphenyl)phenyl-",(2-methylphenyl)-phenylmethanone,20479,DTXSID5059618,Cc1ccccc1C(=O)c1ccccc1,"InChI=1S/C14H12O/c1-11-7-5-6-10-13(11)14(15)12-8-3-2-4-9-12/h2-10H,1H3",CKGKXGQVRVAKEA-UHFFFAOYSA-N,?,308.0,101417
101421,133-13-1,133-13-1,CCC(C(=O)OCC)C(=O)OCC,"Propanedioic acid, ethyl-, diethyl ester",Diethyl ethylpropanedioate,diethyl ethylpropanedioate,20483,DTXSID7038739,CCC(C(=O)OCC)C(=O)OCC,"InChI=1S/C9H16O4/c1-4-7(8(10)12-5-2)9(11)13-6-3/h7H,4-6H2,1-3H3",VQAZCUCWHIIFGE-UHFFFAOYSA-N,?,208.0,101421
101425,134-62-3,134-62-3,Cc1cc(ccc1)C(=O)N(CC)CC,"DEET [N,N,-DIET-3-ME BENZAMIDE]",DEET,"N,N-diethyl-3-methylbenzamide",20487,DTXSID2021995,Cc1cc(ccc1)C(=O)N(CC)CC,"InChI=1S/C12H17NO/c1-4-13(5-2)12(14)11-8-6-7-10(3)9-11/h6-9H,4-5H2,1-3H3",MMOXZBCLCQITDF-UHFFFAOYSA-N,?,290.0,101425
101429,135-01-3,135-01-3,CCc1ccccc1CC,O-DIETHYLBENZENE,o-Diethylbenzene,"1,2-diethylbenzene",20491,DTXSID6052742,CCc1ccccc1CC,"InChI=1S/C10H14/c1-3-9-7-5-6-8-10(9)4-2/h5-8H,3-4H2,1-2H3",KVNYFPKFSJIPBJ-UHFFFAOYSA-N,?,184.0,101429
101434,135-98-8,135-98-8,CCC(C)c1ccccc1,SEC-BUTYLBENZENE,sec-Butylbenzene,butan-2-ylbenzene,20496,DTXSID2022333,CCC(C)c1ccccc1,"InChI=1S/C10H14/c1-3-9(2)10-7-5-4-6-8-10/h4-9H,3H2,1-2H3",ZJMWRROPUADPEA-UHFFFAOYSA-N,?,173.5,101434
101438,137-06-4,137-06-4,Cc1ccccc1S,2-METHYLBENZENETHIOL,2-Methylbenzenethiol,2-methylbenzenethiol,20500,DTXSID8047135,Cc1ccccc1S,"InChI=1S/C7H8S/c1-6-4-2-3-5-7(6)8/h2-5,8H,1H3",LXUNZSDDXMPKLP-UHFFFAOYSA-N,?,195.0,101438
101442,137-32-6,137-32-6,CCC(C)CO,2-METHYL-1-BUTANOL,2-Methyl-1-butanol,2-methylbutan-1-ol,20504,DTXSID5027069,CCC(C)CO,"InChI=1S/C5H12O/c1-3-5(2)4-6/h5-6H,3-4H2,1-2H3",QPRQEDXDYOZYLA-UHFFFAOYSA-N,?,128.0,101442
101446,138-87-4,138-87-4,CC(=C)C1CCC(C)(O)CC1,BETA-TERPINEOL,beta-Terpineol,1-methyl-4-(prop-1-en-2-yl)cyclohexanol,20508,DTXSID7041209,CC(=C)C1CCC(C)(O)CC1,"InChI=1S/C10H18O/c1-8(2)9-4-6-10(3,11)7-5-9/h9,11H,1,4-7H2,2-3H3",RUJPNZNXGCHGID-UHFFFAOYSA-N,?,210.0,101446
101450,140-10-3|621-82-9,140-10-3|621-82-9,OC(=O)/C=C/c1ccccc1,"2-PROPENOIC ACID, 3-PHENYL-, (E)-, CINNAMIC ACID",E-Cinnamic acid,(2E)-3-phenylprop-2-enoic acid,20512|21793,DTXSID5022489|DTXSID40110056,OC(=O)C=Cc1ccccc1,"InChI=1S/C9H8O2/c10-9(11)7-6-8-4-2-1-3-5-8/h1-7H,(H,10,11)/b7-6+",WBYWAXJHAXSJNI-VOTSOKGWSA-N,?,300.0,101450
101454,140-39-6,140-39-6,Cc1ccc(cc1)OC(C)=O,P-TOLYLACETATE,4-Tolyl acetate,4-methylphenyl acetate,20516,DTXSID0046567,Cc1ccc(cc1)OC(C)=O,"InChI=1S/C9H10O2/c1-7-3-5-9(6-4-7)11-8(2)10/h3-6H,1-2H3",CDJJKTLOZJAGIZ-UHFFFAOYSA-N,?,212.5,101454
101458,140-82-9,140-82-9,CCN(CCOCCO)CC,"Ethanol, 2- 2-(diethylamino)ethoxy -",2-[2-(Diethylamino)ethoxy]ethanol,2-(2-diethylaminoethoxy)ethanol,20520,DTXSID9059701,CCN(CCOCCO)CC,"InChI=1S/C8H19NO2/c1-3-9(4-2)5-7-11-8-6-10/h10H,3-8H2,1-2H3",VKBVRNHODPFVHK-UHFFFAOYSA-N,?,221.5,101458
101462,141-04-8,141-04-8,CC(C)COC(=O)CCCCC(=O)OCC(C)C,DIISOBUTYL ADIPATE,Diisobutyl adipate,bis(2-methylpropyl) hexanedioate,20524,DTXSID9036690,CC(C)COC(=O)CCCCC(=O)OCC(C)C,"InChI=1S/C14H26O4/c1-11(2)9-17-13(15)7-5-6-8-14(16)18-10-12(3)4/h11-12H,5-10H2,1-4H3",RDOFJDLLWVCMRU-UHFFFAOYSA-N,?,279.0,101462
101467,141-28-6,141-28-6,CCOC(=O)CCCCC(=O)OCC,DIETHYLHEXANEDIOATE,Diethyl hexanedioate,diethyl hexanedioate,20529,DTXSID2021999,CCOC(=O)CCCCC(=O)OCC,"InChI=1S/C10H18O4/c1-3-13-9(11)7-5-6-8-10(12)14-4-2/h3-8H2,1-2H3",VIZORQUEIQEFRT-UHFFFAOYSA-N,?,245.0,101467
101471,141-59-3,141-59-3,CC(C)(C)CC(C)(C)S,T-OCTYL MERCAPTAN,"2-Pentanethiol, 2,4,4-trimethyl-","2,4,4-Trimethylpentane-2-thiol",20533,DTXSID9059707,CC(C)(C)CC(C)(C)S,"InChI=1S/C8H18S/c1-7(2,3)6-8(4,5)9/h9H,6H2,1-5H3",QZLAEIZEPJAELS-UHFFFAOYSA-N,?,160.0,101471
101475,141-78-6,141-78-6,CCOC(C)=O,ETHYL ACETATE,Ethyl acetate,ethyl acetate,20537,DTXSID1022001,CCOC(C)=O,"InChI=1S/C4H8O2/c1-3-6-4(2)5/h3H2,1-2H3",XEKOWRVHYACXOJ-UHFFFAOYSA-N,?,77.1,101475
101479,141-93-5,141-93-5,CCc1cc(CC)ccc1,M-DIETHYLBENZENE,"1,3-Diethylbenzene","1,3-diethylbenzene",20541,DTXSID1022003,CCc1cc(CC)ccc1,"InChI=1S/C10H14/c1-3-9-6-5-7-10(4-2)8-9/h5-8H,3-4H2,1-2H3",AFZZYIJIWUTJFO-UHFFFAOYSA-N,?,181.1,101479
101483,142-28-9,142-28-9,ClCCCCl,"1,3-DICHLOROPROPANE","1,3-Dichloropropane","1,3-dichloropropane",20545,DTXSID6022004,ClCCCCl,InChI=1S/C3H6Cl2/c4-2-1-3-5/h1-3H2,YHRUOJUYPBUZOS-UHFFFAOYSA-N,?,120.9,101483
101487,142-60-9,142-60-9,CCCCCCCCOC(=O)CC,"Propanoic acid, octyl ester","Propanoic acid, octyl ester",Octyl propanoate,20549,DTXSID3059717,CCCCCCCCOC(=O)CC,"InChI=1S/C11H22O2/c1-3-5-6-7-8-9-10-13-11(12)4-2/h3-10H2,1-2H3",CEQGYPPMTKWBIU-UHFFFAOYSA-N,?,228.0,101487
101491,142-82-5,142-82-5,CCCCCCC,N-HEPTANE,Heptane,heptane,20553,DTXSID6024127,CCCCCCC,"InChI=1S/C7H16/c1-3-5-7-6-4-2/h3-7H2,1-2H3",IMNFDUFMRHMDMM-UHFFFAOYSA-N,?,98.5,101491
101495,142-96-1,142-96-1,CCCCOCCCC,DI-N-BUTYL ETHER,Butyl ether,1-butoxybutane,20557,DTXSID1022007,CCCCOCCCC,"InChI=1S/C8H18O/c1-3-5-7-9-8-6-4-2/h3-8H2,1-2H3",DURPTKYDGMDSBL-UHFFFAOYSA-N,?,140.8,101495
101499,143-13-5,143-13-5,CCCCCCCCCOC(C)=O,"Acetic acid, nonyl ester",Nonyl acetate,nonyl acetate,20561,DTXSID4047123,CCCCCCCCCOC(C)=O,"InChI=1S/C11H22O2/c1-3-4-5-6-7-8-9-10-13-11(2)12/h3-10H2,1-2H3",GJQIMXVRFNLMTB-UHFFFAOYSA-N,?,210.0,101499
101503,143-24-8,143-24-8,COCCOCCOCCOCCOC,"2,5,8,11,14-Pentaoxapentadecane","2,5,8,11,14-Pentaoxapentadecane","2,5,8,11,14-pentaoxapentadecane",20565,DTXSID7044396,COCCOCCOCCOCCOC,"InChI=1S/C10H22O5/c1-11-3-5-13-7-9-15-10-8-14-6-4-12-2/h3-10H2,1-2H3",ZUHZGEOKBKGPSW-UHFFFAOYSA-N,?,275.3,101503
101508,144-79-6,144-79-6,C[Si](Cl)(c1ccccc1)c1ccccc1,"Silane, chloromethyldiphenyl-",Chloro(methyl)diphenylsilane,chloro(methyl)diphenylsilane,20569,DTXSID3027116,C[Si](Cl)(c1ccccc1)c1ccccc1,"InChI=1S/C13H13ClSi/c1-15(14,12-8-4-2-5-9-12)13-10-6-3-7-11-13/h2-11H,1H3",OJZNZOXALZKPEA-UHFFFAOYSA-N,?,295.0,101508
101512,148-53-8,148-53-8,COc1cccc(C=O)c1O,O-VANILLIN,2-Hydroxy-3-methoxybenzaldehyde,2-hydroxy-3-methoxybenzaldehyde,20573,DTXSID5022011,COc1cccc(C=O)c1O,"InChI=1S/C8H8O3/c1-11-7-4-2-3-6(5-9)8(7)10/h2-5,10H,1H3",JJVNINGBHGBWJH-UHFFFAOYSA-N,?,265.5,101512
101516,149-74-6,149-74-6,C[Si](Cl)(Cl)c1ccccc1,DICHLOROMETHYLPHENYLSILANE,Dichloromethylphenylsilane,dichloro(methyl)phenylsilane,20577,DTXSID6029173,C[Si](Cl)(Cl)c1ccccc1,"InChI=1S/C7H8Cl2Si/c1-10(8,9)7-5-3-2-4-6-7/h2-6H,1H3",GNEPOXWQWFSSOU-UHFFFAOYSA-N,?,206.5,101516
101520,150-77-6,150-77-6,CCN(CCN(CC)CC)CC,"1,2-Ethanediamine, N,N,N',N'-tetraethyl-","1,2-Ethanediamine, N,N,N',N'-tetraethyl-","N,N,N',N'-tetraethylethane-1,2-diamine",20581,DTXSID0059740,CCN(CCN(CC)CC)CC,"InChI=1S/C10H24N2/c1-5-11(6-2)9-10-12(7-3)8-4/h5-10H2,1-4H3",DIHKMUNUGQVFES-UHFFFAOYSA-N,?,192.0,101520
101524,151-19-9,NOCAS_861834,CC(CCC(C)(O)CC)CC,"3-Octanol, 3,6-dimethyl-",,,20585,DTXSID40861834,CC(CCC(C)(O)CC)CC,"InChI=1S/C10H22O/c1-5-9(3)7-8-10(4,11)6-2/h9,11H,5-8H2,1-4H3",NPHCXUPGMINOPP-UHFFFAOYSA-N,?,202.2,101524
101529,156-43-4,156-43-4,CCOc1ccc(N)cc1,P-ETHOXYANILINE,4-Ethoxyaniline,4-ethoxyaniline,20590,DTXSID0025864,CCOc1ccc(N)cc1,"InChI=1S/C8H11NO/c1-2-10-8-5-3-7(9)4-6-8/h3-6H,2,9H2,1H3",IMPPGHMHELILKG-UHFFFAOYSA-N,?,254.0,101529
101534,180-43-8,180-43-8,C1CCCCC21CCCCC2,SPIRO[5.5]UNDECANE,Spiro(5.5)undecane,Spiro[5.5]undecane,20595,DTXSID20170890,C1CCCCC21CCCCC2,InChI=1S/C11H20/c1-3-7-11(8-4-1)9-5-2-6-10-11/h1-10H2,NECLQTPQJZSWOE-UHFFFAOYSA-N,?,207.0,101534
101539,203-64-5,203-64-5,C1c2cccc3ccc4cccc1c4c32,"4,5-METHYLENEPHENANTHRENE","4-H-Cyclopenta(d,e,f)phenanthrene",4H-cyclopenta[def]phenanthrene,20599,DTXSID1024887,C1c2cccc3ccc4cccc1c4c32,"InChI=1S/C15H10/c1-3-10-7-8-11-4-2-6-13-9-12(5-1)14(10)15(11)13/h1-8H,9H2",RKZDZWJDQTZDLD-UHFFFAOYSA-N,?,353.0,101539
101543,208-96-8,208-96-8,c1ccc2C=Cc3cccc1c32,ACENAPHTHYLENE,Acenaphthylene,acenaphthylene,20603,DTXSID3023845,c1ccc2C=Cc3cccc1c32,InChI=1S/C12H8/c1-3-9-4-2-6-11-8-7-10(5-1)12(9)11/h1-8H,HXGDTGSAIMULJN-UHFFFAOYSA-N,?,280.0,101543
101547,218-01-9,218-01-9,c1cc2c3ccccc3ccc2c2ccccc21,CHRYSENE,Chrysene,chrysene,20607,DTXSID0022432,c1cc2c3ccccc3ccc2c2ccccc21,InChI=1S/C18H12/c1-3-7-15-13(5-1)9-11-18-16-8-4-2-6-14(16)10-12-17(15)18/h1-12H,WDECIBYCCFPHNR-UHFFFAOYSA-N,?,448.0,101547
101552,253-52-1,253-52-1,c1[n][n]cc2ccccc21,PHTHALAZINE,Phthalazine,phthalazine,20611,DTXSID9049407,c1[n][n]cc2ccccc21,InChI=1S/C8H6N2/c1-2-4-8-6-10-9-5-7(8)3-1/h1-6H,LFSXCDWNBUNEEM-UHFFFAOYSA-N,?,316.0,101552
101556,261-31-4,261-31-4,C1c2ccccc2Sc2ccccc21,Thioxanthene,Thioxanthine,9H-thioxanthene,20615,DTXSID20180732,C1c2ccccc2Sc2ccccc21,"InChI=1S/C13H10S/c1-3-7-12-10(5-1)9-11-6-2-4-8-13(11)14-12/h1-8H,9H2",PQJUJGAVDBINPI-UHFFFAOYSA-N,?,341.0,101556
101560,272-16-2,272-16-2,c1[n][s]c2ccccc21,"1,2-BENZISOTHIAZOLE","1,2-Benzisothiazole","1,2-benzothiazole",20619,DTXSID7074290,c1[n][s]c2ccccc21,InChI=1S/C7H5NS/c1-2-4-7-6(3-1)5-8-9-7/h1-5H,CSNIZNHTOVFARY-UHFFFAOYSA-N,?,220.0,101560
101564,274-40-8,274-40-8,c1cc[n]2ccccc21,INDOLIZINE,Indolizine,INDOLIZINE,20623,DTXSID50181818,c1cc[n]2ccccc21,InChI=1S/C8H7N/c1-2-6-9-7-3-5-8(9)4-1/h1-7H,HOBCFUWDNJPFHB-UHFFFAOYSA-N,?,205.0,101564
101568,280-65-9,280-65-9,C1C2CCCC1CCC2,BICYCLO[3.3.1]NONANE,Bicyclo(3.3.1)nonane,bicyclo[3.3.1]nonane,20627,DTXSID30182282,C1C2CCCC1CCC2,"InChI=1S/C9H16/c1-3-8-5-2-6-9(4-1)7-8/h8-9H,1-7H2",WNTGVOIBBXFMLR-UHFFFAOYSA-N,?,169.5,101568
101573,287-23-0,287-23-0,C1CCC1,CYCLOBUTANE,Cyclobutane,cyclobutatetraene,20631,DTXSID2059772,C1CCC1,InChI=1S/C4H8/c1-2-4-3-1/h1-4H2,PMPVIKIVABFJJI-UHFFFAOYSA-N,?,12.6,101573
101577,288-14-2,288-14-2,c1cco[n]1,ISO-OXAZOLE,Isoxazole,"1,2-oxazole",20635,DTXSID7059775,c1cco[n]1,InChI=1S/C3H3NO/c1-2-4-5-3-1/h1-3H,CTAPFRYPJLPFDF-UHFFFAOYSA-N,?,95.0,101577
101581,288-47-1,288-47-1,c1[n]cc[s]1,THIAZOLE,Thiazole,"1,3-thiazole",20639,DTXSID2059776,c1[n]cc[s]1,InChI=1S/C3H3NS/c1-2-5-3-4-1/h1-3H,FZWLAAWBMGSTSO-UHFFFAOYSA-N,?,118.0,101581
101585,290-87-9,290-87-9,c1[n]c[n]c[n]1,SYM-TRIAZINE,"1,3,5-Triazine","1,3,5-triazine",20643,DTXSID7052785,c1[n]c[n]c[n]1,InChI=1S/C3H3N3/c1-4-2-6-3-5-1/h1-3H,JIHQDMXYYFUGFV-UHFFFAOYSA-N,?,114.0,101585
101589,294-62-2,294-62-2,C1CCCCCCCCCCC1,CYCLODODECANE,Cyclododecane,cyclododecane,20647,DTXSID9021552,C1CCCCCCCCCCC1,InChI=1S/C12H24/c1-2-4-6-8-10-12-11-9-7-5-3-1/h1-12H2,DDTBPAQBQHZRDW-UHFFFAOYSA-N,?,247.0,101589
101594,300-87-8,300-87-8,Cc1cc(C)[n]o1,"Isoxazole, 3,5-dimethyl-","Isoxazole, 3,5-dimethyl-","3,5-dimethyl-1,2-oxazole",20652,DTXSID6059784,Cc1cc(C)[n]o1,"InChI=1S/C5H7NO/c1-4-3-5(2)7-6-4/h3H,1-2H3",FICAQKBMCKEFDI-UHFFFAOYSA-N,?,143.0,101594
101598,306-91-2,306-91-2,FC1(F)C2(F)C(F)(C(F)(F)C(F)(F)C3(F)C2(F)C(F)(F)C(F)(F)C(F)(F)C3(F)F)C(F)(F)C(F)(F)C1(F)F,TETRACOSAFLUOROTETRADECAHYDROPHENANTHRENE,Tetracosafluorotetradecahydrophenanthrene,tetracosafluorotetradecahydrophenanthrene,20656,DTXSID1047029,FC1(F)C2(F)C(F)(C(F)(F)C(F)(F)C3(F)C2(F)C(F)(F)C(F)(F)C(F)(F)C3(F)F)C(F)(F)C(F)(F)C1(F)F,"InChI=1S/C14F24/c15-1-2(16)4(18,10(29,30)14(37,38)12(33,34)6(2,21)22)8(25,26)7(23,24)3(1,17)9(27,28)13(35,36)11(31,32)5(1,19)20",QKENRHXGDUPTEM-UHFFFAOYSA-N,?,210.0,101598
101604,307-43-7,307-43-7,FC(F)(F)C(F)(F)C(F)(F)C(F)(F)C(F)(F)C(F)(F)C(F)(F)C(F)(F)C(F)(F)C(F)(F)Br,1-Bromo-perfluorodecane,Perflubrodec,"1-bromo-1,1,2,2,3,3,4,4,5,5,6,6,7,7,8,8,9,9,10,10,10-henicosafluorodecane",20660,DTXSID70184725,FC(F)(F)C(F)(F)C(F)(F)C(F)(F)C(F)(F)C(F)(F)C(F)(F)C(F)(F)C(F)(F)C(F)(F)Br,"InChI=1S/C10BrF21/c11-9(28,29)7(24,25)5(20,21)3(16,17)1(12,13)2(14,15)4(18,19)6(22,23)8(26,27)10(30,31)32",JCAULFRGWRHHIG-UHFFFAOYSA-N,?,198.0,101604
101608,311-89-7,311-89-7,FC(F)(F)C(F)(F)C(F)(F)C(F)(F)N(C(F)(F)C(F)(F)C(F)(F)C(F)(F)F)C(F)(F)C(F)(F)C(F)(F)C(F)(F)F,HEPTACOSAFLUOROTRIBUTYLAMINE,Perfluorotributylamine,"1,1,2,2,3,3,4,4,4-nonafluoro-N,N-bis(nonafluorobutyl)butan-1-amine",20664,DTXSID0027141,FC(F)(F)C(F)(F)C(F)(F)C(F)(F)N(C(F)(F)C(F)(F)C(F)(F)C(F)(F)F)C(F)(F)C(F)(F)C(F)(F)C(F)(F)F,"InChI=1S/C12F27N/c13-1(14,7(25,26)27)4(19,20)10(34,35)40(11(36,37)5(21,22)2(15,16)8(28,29)30)12(38,39)6(23,24)3(17,18)9(31,32)33",RVZRBWKZFJCCIB-UHFFFAOYSA-N,?,178.0,101608
101613,320-60-5,320-60-5,FC(F)(F)c1ccc(Cl)cc1Cl,"2,4-DICHLORO(TRIFLUOROMETHYL)BENZENE","2,4-Dichlorobenzotrifluoride","2,4-dichloro-1-(trifluoromethyl)benzene",20668,DTXSID0047959,FC(F)(F)c1ccc(Cl)cc1Cl,"InChI=1S/C7H3Cl2F3/c8-4-1-2-5(6(9)3-4)7(10,11)12/h1-3H",KALSHRGEFLVFHE-UHFFFAOYSA-N,?,177.52,101613
101618,323-09-1,323-09-1,Fc1cc2ccccc2cc1,"NAPHTHALENE, 2-FLUORO-",2-Fluoronaphthalene,2-Fluoronaphthalene,20672,DTXSID80186033,Fc1cc2ccccc2cc1,InChI=1S/C10H7F/c11-10-6-5-8-3-1-2-4-9(8)7-10/h1-7H,BAGQBTMEEISJLK-UHFFFAOYSA-N,?,212.0,101618
101622,328-84-7,328-84-7,FC(F)(F)c1cc(Cl)c(Cl)cc1,"3,4-DICHLOROBENZOTRIFLUORIDE","1,2-Dichloro-4-(trifluoromethyl)benzene","1,2-dichloro-4-(trifluoromethyl)benzene",20676,DTXSID5027142,FC(F)(F)c1cc(Cl)c(Cl)cc1,"InChI=1S/C7H3Cl2F3/c8-5-2-1-4(3-6(5)9)7(10,11)12/h1-3H",XILPLWOGHPSJBK-UHFFFAOYSA-N,?,173.5,101622
101626,333-36-8,333-36-8,FC(F)(F)COCC(F)(F)F,Flurothyl,Flurothyl,"bis(2,2,2-trifluoroethyl) ether",20680,DTXSID5046516,FC(F)(F)COCC(F)(F)F,"InChI=1S/C4H4F6O/c5-3(6,7)1-11-2-4(8,9)10/h1-2H2",KGPPDNUWZNWPSI-UHFFFAOYSA-N,?,63.9,101626
101631,335-44-4,NOCAS_871633,FC(Cl)(C(Cl)(Cl)C(F)(F)F)C(F)(F)F,"Butane, 2,2,3-trichloro-1,1,1,3,4,4,4-heptafluor",,,20684,DTXSID20871633,FC(Cl)(C(Cl)(Cl)C(F)(F)F)C(F)(F)F,"InChI=1S/C4Cl3F7/c5-1(6,3(9,10)11)2(7,8)4(12,13)14",ZPGMWBFCBUKITA-UHFFFAOYSA-N,?,98.0,101631
101635,335-58-0,335-58-0,FC(F)(F)C(F)(F)C(F)(F)C(F)(F)C(F)(F)C(F)(F)C(F)(F)I,"Heptane, pentadecafluoro-7-iodo-","Heptane, 1,1,1,2,2,3,3,4,4,5,5,6,6,7,7-pentadecafluoro-7-iodo-","1,1,1,2,2,3,3,4,4,5,5,6,6,7,7-Pentadecafluoro-7-iodoheptane",20688,DTXSID5059828,FC(F)(F)C(F)(F)C(F)(F)C(F)(F)C(F)(F)C(F)(F)C(F)(F)I,"InChI=1S/C7F15I/c8-1(9,2(10,11)4(14,15)6(18,19)20)3(12,13)5(16,17)7(21,22)23",AHUMDLIBMIYQMU-UHFFFAOYSA-N,?,137.5,101635
101639,338-75-0,NOCAS_870507,FC(F)(F)C(Cl)CCl,"Propane, 2,3-dichloro-1,1,1-trifluoro-",,,20692,DTXSID40870507,FC(F)(F)C(Cl)CCl,"InChI=1S/C3H3Cl2F3/c4-1-2(5)3(6,7)8/h2H,1H2",QJMGASHUZRHZBT-UHFFFAOYSA-N,?,76.9,101639
101643,348-51-6,348-51-6,Fc1ccccc1Cl,1-CHLORO-2-FLUOROBENZENE,o-Chlorofluorobenzene,1-Chloro-2-fluorobenzene,20696,DTXSID8059841,Fc1ccccc1Cl,InChI=1S/C6H4ClF/c7-5-3-1-2-4-6(5)8/h1-4H,ZCJAYDKWZAWMPR-UHFFFAOYSA-N,?,137.6,101643
101647,350-03-8,350-03-8,CC(=O)c1ccc[n]c1,3-ACETYLPYRIDINE,3-Acetylpyridine,1-(pyridin-3-yl)ethanone,20700,DTXSID7044421,CC(=O)c1ccc[n]c1,"InChI=1S/C7H7NO/c1-6(9)7-3-2-4-8-5-7/h2-5H,1H3",WEGYGNROSJDEIW-UHFFFAOYSA-N,?,220.0,101647
101651,352-32-9,352-32-9,Cc1ccc(F)cc1,P-FLUOROTOLUENE,p-Fluorotoluene,1-Fluoro-4-methylbenzene,20704,DTXSID7059852,Cc1ccc(F)cc1,"InChI=1S/C7H7F/c1-6-2-4-7(8)5-3-6/h2-5H,1H3",WRWPPGUCZBJXKX-UHFFFAOYSA-N,?,116.6,101651
101655,352-70-5,352-70-5,Cc1cc(F)ccc1,M-FLUOROTOLUENE,m-Fluorotoluene,1-Fluoro-3-methylbenzene,20708,DTXSID2059855,Cc1cc(F)ccc1,"InChI=1S/C7H7F/c1-6-3-2-4-7(8)5-6/h2-5H,1H3",BTQZKHUEUDPRST-UHFFFAOYSA-N,?,115.0,101655
101659,353-50-4,353-50-4,O=C(F)F,CARBONIC DIFLUORIDE,Carbonic difluoride,CARBONYL DIFLUORIDE,20712,DTXSID7059858,O=C(F)F,InChI=1S/CF2O/c2-1(3)4,IYRWEQXVUNLMAY-UHFFFAOYSA-N,?,-84.5,101659
101663,353-59-3,353-59-3,FC(F)(Cl)Br,BROMOCHLORODIFLUOROMETHANE,"Methane, bromochlorodifluoro-",bromo(chloro)difluoromethane,20716,DTXSID0027147,FC(F)(Cl)Br,"InChI=1S/CBrClF2/c2-1(3,4)5",MEXUFEQDCXZEON-UHFFFAOYSA-N,?,-3.7,101663
101667,354-04-1,NOCAS_861886,FC(Br)C(F)(F)Br,"Ethane, 1,2-dibromo-1,1,2-trifluoro-",,,20720,DTXSID10861886,FC(Br)C(F)(F)Br,"InChI=1S/C2HBr2F3/c3-1(5)2(4,6)7/h1H",UREJNEBJDURREH-UHFFFAOYSA-N,?,76.0,101667
101671,354-14-3,354-14-3,FC(Cl)(Cl)C(Cl)Cl,"Ethane, 1,1,2,2-tetrachloro-1-fluoro-",HCFC-121,"1,1,2,2-Tetrachloro-1-fluoroethane",20724,DTXSID6059863,FC(Cl)(Cl)C(Cl)Cl,"InChI=1S/C2HCl4F/c3-1(4)2(5,6)7/h1H",LUBCGHUOCJOIJA-UHFFFAOYSA-N,?,116.0,101671
101676,354-32-5,354-32-5,O=C(Cl)C(F)(F)F,Trifluoroacetyl chloride,Trifluoroacetyl chloride,trifluoroacetyl chloride,20728,DTXSID1029176,O=C(Cl)C(F)(F)F,"InChI=1S/C2ClF3O/c3-1(7)2(4,5)6",PNQBEPDZQUOCNY-UHFFFAOYSA-N,?,-27.0,101676
101680,354-51-8,NOCAS_861891,FC(F)(Br)C(F)(Cl)Br,"1,2-dibromo-1-chloro-1,2,2-trifluoroethane",,,20732,DTXSID60861891,FC(F)(Br)C(F)(Cl)Br,"InChI=1S/C2Br2ClF3/c3-1(5,6)2(4,7)8",OVZATIUQXBLIQT-UHFFFAOYSA-N,?,93.0,101680
101685,354-64-3,354-64-3,FC(F)(F)C(F)(F)I,"Ethane, pentafluoroiodo-",Pentafluoroiodoethane,"1,1,1,2,2-pentafluoro-2-iodoethane",20736,DTXSID8040149,FC(F)(F)C(F)(F)I,"InChI=1S/C2F5I/c3-1(4,5)2(6,7)8",UXPOJVLZTPGWFX-UHFFFAOYSA-N,?,13.0,101685