ChemID,source_casrn,CAS,SMILES,NAME,preferred_name,iupac,MPID,dsstox_substance_id,Canonical_QSARr,InChI_Code_QSARr,InChI Key_QSARr,Salt_Solvent,BP,ID
102009,505-60-2,505-60-2,ClCCSCCCl,DI-2-CHLOROETHYL SULFIDE,Bis-(2-chloroethyl)sulfide,bis(2-chloroethyl) sulfide,21048,DTXSID0037100,ClCCSCCCl,InChI=1S/C4H8Cl2S/c5-1-3-7-4-2-6/h1-4H2,QKSKPIVNLNLAAV-UHFFFAOYSA-N,?,216.0,102009
102010,505-66-8,505-66-8,C1CCNCCN1,"1H-1,4-Diazepine, hexahydro-","1H-1,4-Diazepine, hexahydro-","1,4-diazepane",21049,DTXSID1060130,C1CCNCCN1,"InChI=1S/C5H12N2/c1-2-6-4-5-7-3-1/h6-7H,1-5H2",FQUYSHZXSKYCSY-UHFFFAOYSA-N,?,169.0,102010
102011,505-84-0,505-84-0,CCCOCOCCC,"Propane, 1,1'- methylenebis(oxy) bis-","Propane, 1,1'-[methylenebis(oxy)]bis-",1-(propoxymethoxy)propane,21050,DTXSID1060132,CCCOCOCCC,"InChI=1S/C7H16O2/c1-3-5-8-7-9-6-4-2/h3-7H2,1-2H3",HOMDJHGZAAKUQV-UHFFFAOYSA-N,?,140.5,102011
102013,506-30-9,506-30-9,CCCCCCCCCCCCCCCCCCCC(O)=O,EICOSANOIC ACID,Eicosanoic acid,Icosanoic acid,21052,DTXSID1060134,CCCCCCCCCCCCCCCCCCCC(O)=O,"InChI=1S/C20H40O2/c1-2-3-4-5-6-7-8-9-10-11-12-13-14-15-16-17-18-19-20(21)22/h2-19H2,1H3,(H,21,22)",VKOBVWXKNCXXDE-UHFFFAOYSA-N,?,328.0,102013
102016,506-80-9,506-80-9,[Se]=C=[Se],Selenium carbide,Carbon selenide (CSe2),methanediselone,21053,DTXSID1060138,[Se]=C=[Se],InChI=1S/CSe2/c2-1-3,JNZSJDBNBJWXMZ-UHFFFAOYSA-N,?,125.5,102016
102018,506-96-7,506-96-7,CC(=O)Br,ACETYL BROMIDE,Acetyl bromide,ACETYL BROMIDE,21054,DTXSID5060140,CC(=O)Br,InChI=1S/C2H3BrO/c1-2(3)4/h1H3,FXXACINHVKSMDR-UHFFFAOYSA-N,?,76.0,102018
102020,507-09-5,507-09-5,CC(O)=S,Ethanethioic acid,Ethanethioic acid,,21056,DTXSID5060142,CC(O)=S,"InChI=1S/C2H4OS/c1-2(3)4/h1H3,(H,3,4)",DUYAAUVXQSMXQP-UHFFFAOYSA-N,?,93.0,102020
102021,507-19-7,507-19-7,CC(C)(C)Br,2-BROMO-2-METHYLPROPANE,"Propane, 2-bromo-2-methyl-",2-Bromo-2-methylpropane,21057,DTXSID5060144,CC(C)(C)Br,"InChI=1S/C4H9Br/c1-4(2,3)5/h1-3H3",RKSOPLXZQNSWAS-UHFFFAOYSA-N,?,73.3,102021
102022,507-20-0|918-20-7,507-20-0|918-20-7,CC(C)(C)Cl,"T-BUTYL CHLORIDE, 2-CHLORO-2-METHYLPROPANE",t-Butylchloride,2-chloro-2-methylpropane,21058|22439,DTXSID2023937|DTXSID00238700,CC(C)(C)Cl,"InChI=1S/C4H9Cl/c1-4(2,3)5/h1-3H3",NBRKLOOSMBRFMH-UHFFFAOYSA-N,?,50.45,102022
102025,507-45-9,NOCAS_862071,CC(Cl)C(C)(C)Cl,"BUTANE, 2,3-DICHLORO-2-METHYL-",,,21060,DTXSID70862071,CC(Cl)C(C)(C)Cl,"InChI=1S/C5H10Cl2/c1-4(6)5(2,3)7/h4H,1-3H3",TXTORVZCRUFBBO-UHFFFAOYSA-N,?,129.0,102025
102026,507-52-8,507-52-8,CC(C)(O)C(F)(F)F,2-(TRIFLUORMETHYL)-2-PROPANOL,"1,1,1-Trifluoro-2-methylpropan-2-ol","1,1,1-Trifluoro-2-methylpropan-2-ol",21061,DTXSID80198752,CC(C)(O)C(F)(F)F,"InChI=1S/C4H7F3O/c1-3(2,8)4(5,6)7/h8H,1-2H3",OCGWWLDZAFOHGD-UHFFFAOYSA-N,?,81.0,102026
102027,507-55-1,507-55-1,FC(F)(Cl)C(F)(F)C(F)Cl,"1,3-DICHLORO-1,2,2,3,3-PENTAFLUOROPROPANE","1,3-dichloro-1,1,2,2,3-pentafluoropropane","1,3-dichloro-1,1,2,2,3-pentafluoropropane",21062,DTXSID6042028,FC(F)(Cl)C(F)(F)C(F)Cl,"InChI=1S/C3HCl2F5/c4-1(6)2(7,8)3(5,9)10/h1H",UJIGKESMIPTWJH-UHFFFAOYSA-N,?,56.1,102027
102029,508-32-7,508-32-7,CC1(C)C2CC3C(C2)C13C,Tricyclene,"1,7,7-Trimethyltricyclo[2.2.1.02,6]heptane",C10H16,21064,DTXSID90858714,CC1(C)C2CC3C(C2)C13C,"InChI=1S/C10H16/c1-9(2)6-4-7-8(5-6)10(7,9)3/h6-8H,4-5H2,1-3H3",RRBYUSWBLVXTQN-UHFFFAOYSA-N,?,152.5,102029
102030,509-14-8,509-14-8,[O-][N+](=O)C([N+]([O-])=O)([N+]([O-])=O)[N+]([O-])=O,TETRANITROMETHANE,Tetranitromethane,tetranitromethane,21065,DTXSID5021334,[O-][N+](=O)C([N+]([O-])=O)([N+]([O-])=O)[N+]([O-])=O,"InChI=1S/CN4O8/c6-2(7)1(3(8)9,4(10)11)5(12)13",NYTOUQBROMCLBJ-UHFFFAOYSA-N,?,126.1,102030
102031,512-51-6,512-51-6,CCOC(F)(F)C(F)F,"ETHYL 1,1,2,2-TETRAFLUOROETHYL ETHER","Ethane, 1-ethoxy-1,1,2,2-tetrafluoro-","1-Ethoxy-1,1,2,2-tetrafluoroethane",21066,DTXSID4075249,CCOC(F)(F)C(F)F,"InChI=1S/C4H6F4O/c1-2-9-4(7,8)3(5)6/h3H,2H2,1H3",HBRLMDFVVMYNFH-UHFFFAOYSA-N,?,57.5,102031
102034,513-02-0,513-02-0,CC(C)OP(=O)(OC(C)C)OC(C)C,Triisopropylphosphate,Triisopropyl phosphate,tripropan-2-yl phosphate,21068,DTXSID90199295,CC(C)OP(=O)(OC(C)C)OC(C)C,"InChI=1S/C9H21O4P/c1-7(2)11-14(10,12-8(3)4)13-9(5)6/h7-9H,1-6H3",OXFUXNFMHFCELM-UHFFFAOYSA-N,?,219.0,102034
102035,513-08-6,513-08-6,CCCOP(=O)(OCCC)OCCC,TRIPROPYL PHOSPHATE,Tripropyl phosphate,tripropyl phosphate,21069,DTXSID4052712,CCCOP(=O)(OCCC)OCCC,"InChI=1S/C9H21O4P/c1-4-7-11-14(10,12-8-5-2)13-9-6-3/h4-9H2,1-3H3",RXPQRKFMDQNODS-UHFFFAOYSA-N,?,252.0,102035
102037,513-31-5,513-31-5,C=C(Br)CBr,"2,3-DIBROMO-1-PROPENE","1-Propene, 2,3-dibromo-","2,3-dibromoprop-1-ene",21070,DTXSID9060152,C=C(Br)CBr,InChI=1S/C3H4Br2/c1-3(5)2-4/h1-2H2,YMFWYDYJHRGGPF-UHFFFAOYSA-N,?,141.0,102037
102040,513-37-1,513-37-1,CC(C)=CCl,1-CHLORO-2-METHYLPROPENE,"2,2-Dimethylvinyl chloride",1-chloro-2-methylprop-1-ene,21072,DTXSID5020520,CC(C)=CCl,"InChI=1S/C4H7Cl/c1-4(2)3-5/h3H,1-2H3",KWISWUFGPUHDRY-UHFFFAOYSA-N,?,68.0,102040
102041,513-38-2,513-38-2,CC(C)CI,1-IODO-2-METHYLPROPANE,"Propane, 1-iodo-2-methyl-",1-Iodo-2-methylpropane,21073,DTXSID9060154,CC(C)CI,"InChI=1S/C4H9I/c1-4(2)3-5/h4H,3H2,1-2H3",BTUGGGLMQBJCBN-UHFFFAOYSA-N,?,121.1,102041
102042,513-44-0,513-44-0,CC(C)CS,2-METHYL-1-PROPANETHIOL,"1-Propanethiol, 2-methyl-",2-Methylpropane-1-thiol,21074,DTXSID9060156,CC(C)CS,"InChI=1S/C4H10S/c1-4(2)3-5/h4-5H,3H2,1-2H3",BDFAOUQQXJIZDG-UHFFFAOYSA-N,?,88.5,102042
102044,513-49-5|13952-84-6,13952-84-6,CCC(C)N,SEC-BUTYLAMINE,2-Butanamine,butan-2-amine,21076|24160,DTXSID4022284,CCC(C)N,"InChI=1S/C4H11N/c1-3-4(2)5/h4H,3,5H2,1-2H3",BHRZNVHARXXAHW-UHFFFAOYSA-N,?,62.75,102044
102045,513-53-1,513-53-1,CCC(C)S,2-BUTANETHIOL,2-Butanethiol,butane-2-thiol,21077,DTXSID1041396,CCC(C)S,"InChI=1S/C4H10S/c1-3-4(2)5/h4-5H,3H2,1-2H3",LOCHFZBWPCLPAN-UHFFFAOYSA-N,?,84.5,102045
102046,513-81-5,513-81-5,CC(=C)C(C)=C,"2,3-DIMETHYL-1,3-BUTADIENE","2,3-Dimethyl-1,3-butadiene","2,3-dimethylbuta-1,3-diene",21078,DTXSID2022046,CC(=C)C(C)=C,"InChI=1S/C6H10/c1-5(2)6(3)4/h1,3H2,2,4H3",SDJHPPZKZZWAKF-UHFFFAOYSA-N,?,68.8,102046
102048,513-86-0,513-86-0,CC(O)C(C)=O,ACETOIN,Acetoin,3-hydroxybutan-2-one,21080,DTXSID0024399,CC(O)C(C)=O,"InChI=1S/C4H8O2/c1-3(5)4(2)6/h3,5H,1-2H3",ROWKJAVDOGWPAT-UHFFFAOYSA-N,?,143.0,102048
102049,513-88-2,513-88-2,CC(=O)C(Cl)Cl,"1,1-DICHLOROPROPANONE","1,1-Dichloropropanone","1,1-dichloropropan-2-one",21081,DTXSID7021576,CC(=O)C(Cl)Cl,"InChI=1S/C3H4Cl2O/c1-2(6)3(4)5/h3H,1H3",CSVFWMMPUJDVKH-UHFFFAOYSA-N,?,120.0,102049
102050,515-00-4,19894-97-4,CC1(C)[C@H]2C[C@@H]1CC=C2CO,(1R)-(-)-Myrtenol,"Myrtenol, (-)-","[(1S,5R)-7,7-dimethyl-4-bicyclo[3.1.1]hept-3-enyl]methanol",21082,DTXSID30173670,CC1(C)C2CC1CC=C2CO,"InChI=1S/C10H16O/c1-10(2)8-4-3-7(6-11)9(10)5-8/h3,8-9,11H,4-6H2,1-2H3",RXBQNMWIQKOSCS-UHFFFAOYSA-N,?,221.5,102050
102052,515-83-3,NOCAS_870577,CCOC(O)C(Cl)(Cl)Cl,"Ethanol, 2,2,2-trichloro-1-ethoxy-",,,21084,DTXSID90870577,CCOC(O)C(Cl)(Cl)Cl,"InChI=1S/C4H7Cl3O2/c1-2-9-3(8)4(5,6)7/h3,8H,2H2,1H3",DLHWKJDYXPNWAI-UHFFFAOYSA-N,?,115.5,102052
102053,515-84-4,515-84-4,CCOC(=O)C(Cl)(Cl)Cl,ETHYL TRICHLOROACETATE,"Acetic acid, trichloro-, ethyl ester","ethyl 2,2,2-trichloroacetate",21085,DTXSID9060158,CCOC(=O)C(Cl)(Cl)Cl,"InChI=1S/C4H5Cl3O2/c1-2-9-3(8)4(5,6)7/h2H2,1H3",SJMLNDPIJZBEKY-UHFFFAOYSA-N,?,167.5,102053
102054,517-22-6,517-22-6,CCc1c(C)c[nH]c1C,"1H-PYRROLE, 3-ETHYL-2,4-DIMETHYL-",Kryptopyrrole,"3-Ethyl-2,4-dimethyl-1H-pyrrole",21086,DTXSID20199647,CCc1c(C)c[nH]c1C,"InChI=1S/C8H13N/c1-4-8-6(2)5-9-7(8)3/h5,9H,4H2,1-3H3",ZEBBLOXDLGIMEG-UHFFFAOYSA-N,?,199.0,102054
102056,520-45-6,520-45-6,CC(=O)C1C(=O)C=C(C)OC1=O,DEHYDROACETIC ACID,Dehydroacetic acid,"3-acetyl-6-methyl-2H-pyran-2,4(3H)-dione",21088,DTXSID6020014,CC(=O)C1C(=O)C=C(C)OC1=O,"InChI=1S/C8H8O4/c1-4-3-6(10)7(5(2)9)8(11)12-4/h3,7H,1-2H3",PGRHXDWITVMQBC-UHFFFAOYSA-N,?,270.0,102056
102058,523-80-8,523-80-8,COc1c(CC=C)cc(OC)c2OCOc21,"1,3-Benzodioxole, 4,7-dimethoxy-5-(2-propenyl)-","1,3-Benzodioxole, 4,7-dimethoxy-5-(2-propenyl)-","4,7-dimethoxy-5-(prop-2-en-1-yl)-1,3-benzodioxole",21089,DTXSID4041236,COc1c(CC=C)cc(OC)c2OCOc21,"InChI=1S/C12H14O4/c1-4-5-8-6-9(13-2)11-12(10(8)14-3)16-7-15-11/h4,6H,1,5,7H2,2-3H3",QQRSPHJOOXUALR-UHFFFAOYSA-N,?,294.0,102058
102059,526-73-8,526-73-8,Cc1c(C)cccc1C,"1,2,3-TRIMETHYLBENZENE","1,2,3-Trimethylbenzene","1,2,3-trimethylbenzene",21090,DTXSID8047769,Cc1c(C)cccc1C,"InChI=1S/C9H12/c1-7-5-4-6-8(2)9(7)3/h4-6H,1-3H3",FYGHSUNMUKGBRK-UHFFFAOYSA-N,?,176.1,102059
102061,526-85-2,NOCAS_865331,Cc1ccc(O)c(C)c1C,"Phenol, 2,3,4-trimethyl-",,,21092,DTXSID80865331,Cc1ccc(O)c(C)c1C,"InChI=1S/C9H12O/c1-6-4-5-9(10)8(3)7(6)2/h4-5,10H,1-3H3",XRUGBBIQLIVCSI-UHFFFAOYSA-N,?,236.0,102061
102062,527-35-5,527-35-5,Cc1c(O)c(C)c(C)cc1C,"Phenol, 2,3,5,6-tetramethyl-",Durenol,"2,3,5,6-Tetramethylphenol",21093,DTXSID7060174,Cc1c(O)c(C)c(C)cc1C,"InChI=1S/C10H14O/c1-6-5-7(2)9(4)10(11)8(6)3/h5,11H,1-4H3",KLAQSPUVCDBEGF-UHFFFAOYSA-N,?,247.0,102062
102063,527-53-7,527-53-7,Cc1cc(C)c(C)c(C)c1,"1,2,3,5-TETRAMETHYLBENZENE","1,2,3,5-Tetramethylbenzene","1,2,3,5-tetramethylbenzene",21094,DTXSID6026119,Cc1cc(C)c(C)c(C)c1,"InChI=1S/C10H14/c1-7-5-8(2)10(4)9(3)6-7/h5-6H,1-4H3",BFIMMTCNYPIMRN-UHFFFAOYSA-N,?,198.0,102063
102065,527-60-6,527-60-6,Cc1cc(C)c(O)c(C)c1,"2,4,6-TRIMETHYLPHENOL","2,4,6-Trimethylphenol","2,4,6-trimethylphenol",21096,DTXSID7022049,Cc1cc(C)c(O)c(C)c1,"InChI=1S/C9H12O/c1-6-4-7(2)9(10)8(3)5-6/h4-5,10H,1-3H3",BPRYUXCVCCNUFE-UHFFFAOYSA-N,?,220.0,102065
102066,527-69-5,527-69-5,O=C(Cl)c1ccco1,2-Furancarbonyl chloride,2-Furancarbonyl chloride,furan-2-carbonyl chloride,21097,DTXSID7060176,O=C(Cl)c1ccco1,InChI=1S/C5H3ClO2/c6-5(7)4-2-1-3-8-4/h1-3H,OFTKFKYVSBNYEC-UHFFFAOYSA-N,?,173.0,102066
102067,527-84-4,527-84-4,Cc1ccccc1C(C)C,1-METHYL-2-ISOPROPYLBENZENE,1-Methyl-2-(propan-2-yl)benzene,1-isopropyl-2-methylbenzene,21098,DTXSID1052165,Cc1ccccc1C(C)C,"InChI=1S/C10H14/c1-8(2)10-7-5-4-6-9(10)3/h4-8H,1-3H3",WWRCMNKATXZARA-UHFFFAOYSA-N,?,178.1,102067
102069,528-79-0,NOCAS_862124,Cc1ccc(C(C)C)c(c1)OC(C)=O,"Phenol, 5-methyl-2-(1-methylethyl)-, acetate",,,21100,DTXSID40862124,Cc1ccc(C(C)C)c(c1)OC(C)=O,"InChI=1S/C12H16O2/c1-8(2)11-6-5-9(3)7-12(11)14-10(4)13/h5-8H,1-4H3",WFMIUXMJJBBOGJ-UHFFFAOYSA-N,?,245.0,102069
102070,529-16-8,NOCAS_870585,CC1C2CC(CC2)C=1C,"BICYCLO[2.2.1]HEPT-2-ENE, 2,3-DIMETHYL-",,,21101,DTXSID20870585,CC1C2CC(CC2)C=1C,"InChI=1S/C9H14/c1-6-7(2)9-4-3-8(6)5-9/h8-9H,3-5H2,1-2H3",LSIXBBPOJBJQHN-UHFFFAOYSA-N,?,140.5,102070
102071,529-17-9,529-17-9,CN1[C@@H]2CCC[C@H]1CC2,Tropane,,,21102,DTXSID50879243,CN1C2CCCC1CC2,"InChI=1S/C8H15N/c1-9-7-3-2-4-8(9)6-5-7/h7-8H,2-6H2,1H3",XLRPYZSEQKXZAA-UHFFFAOYSA-N,?,166.0,102071
102073,529-20-4,529-20-4,Cc1ccccc1C=O,2-METHYLBENZALDEHYDE,2-Tolualdehyde,2-methylbenzaldehyde,21104,DTXSID1022051,Cc1ccccc1C=O,"InChI=1S/C8H8O/c1-7-4-2-3-5-8(7)6-9/h2-6H,1H3",BTFQKIATRPGRBS-UHFFFAOYSA-N,?,200.0,102073
102074,529-21-5,529-21-5,Cc1cc[n]cc1CC,"Pyridine, 3-ethyl-4-methyl-","Pyridine, 3-ethyl-4-methyl-",3-Ethyl-4-methylpyridine,21105,DTXSID1060182,Cc1cc[n]cc1CC,"InChI=1S/C8H11N/c1-3-8-6-9-5-4-7(8)2/h4-6H,3H2,1-2H3",JDQNYWYMNFRKNQ-UHFFFAOYSA-N,?,198.0,102074
102075,529-28-2,529-28-2,COc1ccccc1I,"Benzene, 1-iodo-2-methoxy-","Benzene, 1-iodo-2-methoxy-",1-Iodo-2-methoxybenzene,21106,DTXSID1060184,COc1ccccc1I,"InChI=1S/C7H7IO/c1-9-7-5-3-2-4-6(7)8/h2-5H,1H3",DVQWNQBEUKXONL-UHFFFAOYSA-N,?,241.0,102075
102077,529-36-2,529-36-2,Sc1cccc2ccccc21,1-Naphthalenethiol,1-Naphthalenethiol,naphthalene-1-thiol,21108,DTXSID6060185,Sc1cccc2ccccc21,"InChI=1S/C10H8S/c11-10-7-3-5-8-4-1-2-6-9(8)10/h1-7,11H",SEXOVMIIVBKGGM-UHFFFAOYSA-N,?,285.0,102077
102078,529-65-7,529-65-7,CC(=O)N(CC)c1ccccc1,"Acetamide, N-ethyl-N-phenyl-","Acetamide, N-ethyl-N-phenyl-",N-Ethyl-N-phenylacetamide,21109,DTXSID1060186,CC(=O)N(CC)c1ccccc1,"InChI=1S/C10H13NO/c1-3-11(9(2)12)10-7-5-4-6-8-10/h4-8H,3H2,1-2H3",FSSVIYSWRLKICW-UHFFFAOYSA-N,?,260.0,102078
102079,530-45-0,530-45-0,CC(c1ccc(C)cc1)c1ccc(C)cc1,"1,1-Di-p-tolylethane","Benzene, 1,1'-ethylidenebis[4-methyl-",1-methyl-4-[1-(4-methylphenyl)ethyl]benzene,21110,DTXSID6060189,CC(c1ccc(C)cc1)c1ccc(C)cc1,"InChI=1S/C16H18/c1-12-4-8-15(9-5-12)14(3)16-10-6-13(2)7-11-16/h4-11,14H,1-3H3",IDONYCOFOUUWLB-UHFFFAOYSA-N,?,297.5,102079
102081,530-93-8,530-93-8,O=C1Cc2ccccc2CC1,"2(1H)-Naphthalenone, 3,4-dihydro-",2-Tetralone,"3,4-dihydro-1H-naphthalen-2-one",21112,DTXSID0060193,O=C1Cc2ccccc2CC1,"InChI=1S/C10H10O/c11-10-6-5-8-3-1-2-4-9(8)7-10/h1-4H,5-7H2",KCKZIWSINLBROE-UHFFFAOYSA-N,?,237.0,102081
102082,532-18-3,532-18-3,c1c(ccc2ccccc21)Nc1cc2ccccc2cc1,"b,b'-Dinaphthylamine","beta,beta'-Dinaphthylamine",N-naphthalen-2-ylnaphthalen-2-amine,21113,DTXSID80201255,c1c(ccc2ccccc21)Nc1cc2ccccc2cc1,"InChI=1S/C20H15N/c1-3-7-17-13-19(11-9-15(17)5-1)21-20-12-10-16-6-2-4-8-18(16)14-20/h1-14,21H",SBMXAWJSNIAHFR-UHFFFAOYSA-N,?,471.0,102082
102083,532-24-1,NOCAS_862133,CN1C2CC(=O)CC1CC2,"8-AZABICYCLO[3.2.1]OCTAN-3-ONE, 8-METHYL-",,,21114,DTXSID30862133,CN1C2CC(=O)CC1CC2,"InChI=1S/C8H13NO/c1-9-6-2-3-7(9)5-8(10)4-6/h6-7H,2-5H2,1H3",QQXLDOJGLXJCSE-UHFFFAOYSA-N,?,227.0,102083
102085,532-34-3,532-34-3,CCCCOC(=O)C1=CC(=O)CC(C)(C)O1,INDALONE,Butopyronoxyl,"butyl 2,2-dimethyl-4-oxo-3,4-dihydro-2H-pyran-6-carboxylate",21116,DTXSID2040319,CCCCOC(=O)C1=CC(=O)CC(C)(C)O1,"InChI=1S/C12H18O4/c1-4-5-6-15-11(14)10-7-9(13)8-12(2,3)16-10/h7H,4-6,8H2,1-3H3",OKIJSNGRQAOIGZ-UHFFFAOYSA-N,?,263.0,102085
102086,532-96-7,532-96-7,O=C(NNc1ccccc1)c1ccccc1,Benzoic acid N'-phenyl-hydrazide,"Benzoic acid, 2-phenylhydrazide",N'-Phenylbenzohydrazide,21117,DTXSID50201262,O=C(NNc1ccccc1)c1ccccc1,"InChI=1S/C13H12N2O/c16-13(11-7-3-1-4-8-11)15-14-12-9-5-2-6-10-12/h1-10,14H,(H,15,16)",CKLPECFHCLIYKN-UHFFFAOYSA-N,?,314.0,102086
102087,533-18-6,533-18-6,Cc1ccccc1OC(C)=O,O-TOLYLACETATE,"Acetic acid, 2-methylphenyl ester",(2-methylphenyl) acetate,21118,DTXSID7060201,Cc1ccccc1OC(C)=O,"InChI=1S/C9H10O2/c1-7-5-3-4-6-9(7)11-8(2)10/h3-6H,1-2H3",AMZORBZSQRUXNC-UHFFFAOYSA-N,?,208.0,102087
102089,533-68-6,NOCAS_870591,CCC(Br)C(=O)OCC,"Butanoic acid, 2-bromo-, ethyl ester",,,21120,DTXSID30870591,CCC(Br)C(=O)OCC,"InChI=1S/C6H11BrO2/c1-3-5(7)6(8)9-4-2/h5H,3-4H2,1-2H3",XIMFCGSNSKXPBO-UHFFFAOYSA-N,?,177.0,102089
102090,533-98-2,NOCAS_870592,CCC(Br)CBr,"1,2-DIBROMOBUTANE",,,21121,DTXSID90870592,CCC(Br)CBr,"InChI=1S/C4H8Br2/c1-2-4(6)3-5/h4H,2-3H2,1H3",CZWSZZHGSNZRMW-UHFFFAOYSA-N,?,166.3,102090
102091,534-00-9,534-00-9,CC[C@H](C)CBr,"Butane, 1-bromo-2-methyl-, (S)-",,,21122,DTXSID70878758,CCC(C)CBr,"InChI=1S/C5H11Br/c1-3-5(2)4-6/h5H,3-4H2,1-2H3",XKVLZBNEPALHIO-UHFFFAOYSA-N,?,121.6,102091
102093,534-15-6,534-15-6,CC(OC)OC,"1,1-DIMETHOXYETHANE","1,1-Dimethoxyethane","1,1-dimethoxyethane",21124,DTXSID7027178,CC(OC)OC,"InChI=1S/C4H10O2/c1-4(5-2)6-3/h4H,1-3H3",SPEUIVXLLWOEMJ-UHFFFAOYSA-N,?,64.5,102093
102094,534-22-5,534-22-5,Cc1ccco1,2-METHYLFURAN,2-Methylfuran,2-methylfuran,21125,DTXSID9025611,Cc1ccco1,"InChI=1S/C5H6O/c1-5-3-2-4-6-5/h2-4H,1H3",VQKFNUFAXTZWDK-UHFFFAOYSA-N,?,65.0,102094
102095,534-26-9,534-26-9,CC1NCCN=1,2-METHYL-2-IMIDAZOLINE,"1H-Imidazole, 4,5-dihydro-2-methyl-","2-methyl-4,5-dihydro-1H-imidazole",21126,DTXSID2060204,CC1NCCN=1,"InChI=1S/C4H8N2/c1-4-5-2-3-6-4/h2-3H2,1H3,(H,5,6)",VWSLLSXLURJCDF-UHFFFAOYSA-N,?,196.5,102095
102098,534-85-0,534-85-0,Nc1ccccc1Nc1ccccc1,"1,2-Benzenediamine, N-phenyl-","1,2-Benzenediamine,N-phenyl-","N-phenylbenzene-1,2-diamine",21128,DTXSID0049315,Nc1ccccc1Nc1ccccc1,"InChI=1S/C12H12N2/c13-11-8-4-5-9-12(11)14-10-6-2-1-3-7-10/h1-9,14H,13H2",NFCPRRWCTNLGSN-UHFFFAOYSA-N,?,313.0,102098
102099,535-11-5,51063-99-1,CCOC(=O)[C@@H](C)Br,Ethyl a-Bromopropionate,UNII-LIB5D6L75Z,C5H9BrO2,21129,DTXSID30426471,CCOC(=O)C(C)Br,"InChI=1S/C5H9BrO2/c1-3-8-5(7)4(2)6/h4H,3H2,1-2H3",ARFLASKVLJTEJD-UHFFFAOYSA-N,?,160.0,102099
102100,535-13-7,42411-39-2,CCOC(=O)[C@H](C)Cl,ETHYL ALPHA-CHLOROPROPIONATE,UNII-SQ49R2F429,C5H9ClO2,21130,DTXSID00426347,CCOC(=O)C(C)Cl,"InChI=1S/C5H9ClO2/c1-3-8-5(7)4(2)6/h4H,3H2,1-2H3",JEAVBVKAYUCPAQ-UHFFFAOYSA-N,?,147.0,102100
102102,535-77-3,535-77-3,Cc1cccc(c1)C(C)C,M-CYMENE,m-Cymene,1-methyl-3-propan-2-ylbenzene,21132,DTXSID2060206,Cc1cccc(c1)C(C)C,"InChI=1S/C10H14/c1-8(2)10-6-4-5-9(3)7-10/h4-8H,1-3H3",XCYJPXQACVEIOS-UHFFFAOYSA-N,?,175.1,102102
102103,536-50-5,51154-54-2,Cc1ccc(cc1)[C@H](C)O,"Benzenemethanol, .alpha.,4-dimethyl-","1-p-Tolylethanol, (-)-",(1S)-1-(4-methylphenyl)ethanol,21133,DTXSID00199180,Cc1ccc(cc1)C(C)O,"InChI=1S/C9H12O/c1-7-3-5-9(6-4-7)8(2)10/h3-6,8,10H,1-2H3",JESIHYIJKKUWIS-UHFFFAOYSA-N,?,219.0,102103
102104,536-59-4,536-59-4,CC(=C)C1CCC(CO)=CC1,"1-Cyclohexene-1-methanol, 4-(1-methylethenyl)-",4-Isopropenylcyclohex-1-en-1-ylmethanol,[4-(prop-1-en-2-yl)cyclohex-1-en-1-yl]methanol,21134,DTXSID4052180,CC(=C)C1CCC(CO)=CC1,"InChI=1S/C10H16O/c1-8(2)10-5-3-9(7-11)4-6-10/h3,10-11H,1,4-7H2,2H3",NDTYTMIUWGWIMO-UHFFFAOYSA-N,?,244.0,102104
102106,536-74-3,536-74-3,C#Cc1ccccc1,ETHYNYL BENZENE,Phenylacetylene,Ethynylbenzene,21136,DTXSID1060211,C#Cc1ccccc1,"InChI=1S/C8H6/c1-2-8-6-4-3-5-7-8/h1,3-7H",UEXCJVNBTNXOEH-UHFFFAOYSA-N,?,143.0,102106
102107,536-75-4,536-75-4,CCc1cc[n]cc1,4-ETHYLPYRIDINE,"Pyridine, C1-3-alkyl derivs.",4-ethylpyridine,21137,DTXSID60873555,CCc1cc[n]cc1,"InChI=1S/C7H9N/c1-2-7-3-5-8-6-4-7/h3-6H,2H2,1H3",VJXRKZJMGVSXPX-UHFFFAOYSA-N,?,168.3,102107
102108,536-78-7,536-78-7,CCc1c[n]ccc1,3-ETHYLPYRIDINE,3-Ethylpyridine,3-ETHYLPYRIDINE,21138,DTXSID6060212,CCc1c[n]ccc1,"InChI=1S/C7H9N/c1-2-7-4-3-5-8-6-7/h3-6H,2H2,1H3",MFEIKQPHQINPRI-UHFFFAOYSA-N,?,165.0,102108
102110,536-90-3,536-90-3,COc1cccc(N)c1,M-METHOXYANILINE,3-Methoxyaniline,3-methoxyaniline,21140,DTXSID8024529,COc1cccc(N)c1,"InChI=1S/C7H9NO/c1-9-7-4-2-3-6(8)5-7/h2-5H,8H2,1H3",NCBZRJODKRCREW-UHFFFAOYSA-N,?,251.0,102110
102111,537-92-8,537-92-8,Cc1cccc(c1)NC(C)=O,3-METHYLACETANILIDE,N-Acetyl-m-toluidine,N-(3-methylphenyl)acetamide,21141,DTXSID6024412,Cc1cccc(c1)NC(C)=O,"InChI=1S/C9H11NO/c1-7-4-3-5-9(6-7)10-8(2)11/h3-6H,1-2H3,(H,10,11)",ALMHSXDYCFOZQD-UHFFFAOYSA-N,?,303.0,102111
102112,538-51-2,NOCAS_870599,C(=Nc1ccccc1)c1ccccc1,BENZALANILINE,,,21142,DTXSID10870599,C(=Nc1ccccc1)c1ccccc1,InChI=1S/C13H11N/c1-3-7-12(8-4-1)11-14-13-9-5-2-6-10-13/h1-11H/b14-11+,UVEWQKMPXAHFST-SDNWHVSQSA-N,?,310.0,102112
102116,539-03-7,539-03-7,CC(=O)Nc1ccc(Cl)cc1,P-CHLOROACETANILIDE,4-Chloroacetanilide,N-(4-Chlorophenyl)acetamide,21144,DTXSID0060228,CC(=O)Nc1ccc(Cl)cc1,"InChI=1S/C8H8ClNO/c1-6(11)10-8-4-2-7(9)3-5-8/h2-5H,1H3,(H,10,11)",GGUOCFNAWIODMF-UHFFFAOYSA-N,?,333.0,102116
102117,539-30-0,539-30-0,CCOCc1ccccc1,BENZYL ETHYL ETHER,Benzyl ethyl ether,ethoxymethylbenzene,21145,DTXSID4060230,CCOCc1ccccc1,"InChI=1S/C9H12O/c1-2-10-8-9-6-4-3-5-7-9/h3-7H,2,8H2,1H3",AXPZDYVDTMMLNB-UHFFFAOYSA-N,?,186.0,102117
102118,539-32-2,539-32-2,CCCCc1c[n]ccc1,"Pyridine, 3-butyl-",3-Butylpyridine,3-Butylpyridine,21146,DTXSID9060231,CCCCc1c[n]ccc1,"InChI=1S/C9H13N/c1-2-3-5-9-6-4-7-10-8-9/h4,6-8H,2-3,5H2,1H3",QSNMFWFDOFQASV-UHFFFAOYSA-N,?,206.5,102118
102120,539-74-2,539-74-2,CCOC(=O)CCBr,"Propanoic acid, 3-bromo-, ethyl ester","Propanoic acid, 3-bromo-, ethyl ester",Ethyl 3-bromopropanoate,21148,DTXSID9060235,CCOC(=O)CCBr,"InChI=1S/C5H9BrO2/c1-2-8-5(7)3-4-6/h2-4H2,1H3",FQTIYMRSUOADDK-UHFFFAOYSA-N,?,179.0,102120
102121,539-82-2,539-82-2,CCCCC(=O)OCC,ETHYL VALERATE,Ethyl valerate,ethyl pentanoate,21149,DTXSID6040161,CCCCC(=O)OCC,"InChI=1S/C7H14O2/c1-3-5-6-7(8)9-4-2/h3-6H2,1-2H3",ICMAFTSLXCXHRK-UHFFFAOYSA-N,?,146.1,102121
102122,539-88-8,539-88-8,CC(=O)CCC(=O)OCC,ETHYL LEVULINATE,Ethyl levulinate,ethyl 4-oxopentanoate,21150,DTXSID8047058,CC(=O)CCC(=O)OCC,"InChI=1S/C7H12O3/c1-3-10-7(9)5-4-6(2)8/h3-5H2,1-2H3",GMEONFUTDYJSNV-UHFFFAOYSA-N,?,205.8,102122
102124,539-92-4,539-92-4,CC(C)COC(=O)OCC(C)C,"Carbonic acid, bis(2-methylpropyl) ester","Carbonic acid, bis(2-methylpropyl) ester",bis(2-methylpropyl) carbonate,21152,DTXSID4060236,CC(C)COC(=O)OCC(C)C,"InChI=1S/C9H18O3/c1-7(2)5-11-9(10)12-6-8(3)4/h7-8H,5-6H2,1-4H3",UXXXZMDJQLPQPH-UHFFFAOYSA-N,?,190.0,102124
102125,540-07-8,540-07-8,CCCCCOC(=O)CCCCC,"Hexanoic acid, pentyl ester",Pentyl hexanoate,pentyl hexanoate,21153,DTXSID0047581,CCCCCOC(=O)CCCCC,"InChI=1S/C11H22O2/c1-3-5-7-9-11(12)13-10-8-6-4-2/h3-10H2,1-2H3",WRFZKAGPPQGDDQ-UHFFFAOYSA-N,?,226.0,102125