ChemID,source_casrn,CAS,SMILES,NAME,preferred_name,iupac,MPID,dsstox_substance_id,Canonical_QSARr,InChI_Code_QSARr,InChI Key_QSARr,Salt_Solvent,Salt_Solvent_ID,MP,ID
100877,84-88-8,84-88-8,Oc1ccc(c2ccc[n]c12)S(O)(=O)=O,"5-Quinolinesulfonic acid, 8-hydroxy-","5-Quinolinesulfonic acid, 8-hydroxy-",8-hydroxyquinoline-5-sulfonic acid,28196,DTXSID7041542,Oc1ccc(c2ccc[n]c12)S(O)(=O)=O,"InChI=1S/C9H7NO4S/c11-7-3-4-8(15(12,13)14)6-2-1-5-10-9(6)7/h1-5,11H,(H,12,13,14)",LGDFHDKSYGVKDC-UHFFFAOYSA-N,?,,322.5,100877
100881,85-00-7,85-00-7,[Br-].[Br-].C1C[n+]2ccccc2-c2cccc[n+]21,DIQUAT DIBROMIDE,Diquat dibromide,"6,7-dihydrodipyrido[1,2-a:2',1'-c]pyrazinediium dibromide",28200,DTXSID3024075,C1C[n+]2ccccc2-c2cccc[n+]21,"InChI=1S/C12H12N2/c1-3-7-13-9-10-14-8-4-2-6-12(14)11(13)5-1/h1-8H,9-10H2/q+2",SYJFEGQWDCRVNX-UHFFFAOYSA-N,[Br-].[Br-],175.0,337.0,100881
100885,85-23-4,85-23-4,CC1C(=O)C(O)=C(OC)C(=O)C=1O,"3,6-DIHYDROXY-5-METHOXY-P-TOLUQUINONE",,,28204,DTXSID80879392,CC1C(=O)C(O)=C(OC)C(=O)C=1O,"InChI=1S/C8H8O5/c1-3-4(9)6(11)8(13-2)7(12)5(3)10/h9,12H,1-2H3",GFAZBXKENDSJEB-UHFFFAOYSA-N,?,,202.5,100885
100893,85-46-1,85-46-1,O=S(=O)(Cl)c1cccc2ccccc21,1-Naphthalenesulfonyl chloride,1-Naphthalenesulfonyl chloride,naphthalene-1-sulfonyl chloride,28210,DTXSID6058922,O=S(=O)(Cl)c1cccc2ccccc21,"InChI=1S/C10H7ClO2S/c11-14(12,13)10-7-3-5-8-4-1-2-6-9(8)10/h1-7H",DASJFYAPNPUBGG-UHFFFAOYSA-N,?,,68.0,100893
100897,85-64-3|301-21-3,3122-95-0,CN1CCc2cc(OC)c(cc2[C@@H]1Cc1cc(O)c(cc1)OC)OC,"Laudanine, Laudanidine",L-(+)-Laudanidine,C20H25NO4,28213|30093,DTXSID10356308,CN1CCc2cc(OC)c(cc2C1Cc1cc(O)c(cc1)OC)OC,"InChI=1S/C20H25NO4/c1-21-8-7-14-11-19(24-3)20(25-4)12-15(14)16(21)9-13-5-6-18(23-2)17(22)10-13/h5-6,10-12,16,22H,7-9H2,1-4H3",MPYHGNAJOKCMAQ-UHFFFAOYSA-N,?,,175.75,100897
100902,85-84-7,85-84-7,Nc1ccc2ccccc2c1N=Nc1ccccc1,"2-Naphthalenamine, 1-(phenylazo)-",1-(Phenylazo)-2-naphthylamine,1-phenyldiazenylnaphthalen-2-amine,28217,DTXSID0058932,Nc1ccc2ccccc2c1N=Nc1ccccc1,"InChI=1S/C16H13N3/c17-15-11-10-12-6-4-5-9-14(12)16(15)19-18-13-7-2-1-3-8-13/h1-11H,17H2/b19-18+",KLCDQSGLLRINHY-VHEBQXMUSA-N,?,,103.0,100902
100906,85-97-2,85-97-2,Oc1c(Cl)cccc1-c1ccccc1,"3-CHLORO-(1,1'-BIPHENYL)-2-OL",2-Chloro-6-phenylphenol,3-chlorobiphenyl-2-ol,28221,DTXSID8041408,Oc1c(Cl)cccc1-c1ccccc1,"InChI=1S/C12H9ClO/c13-11-8-4-7-10(12(11)14)9-5-2-1-3-6-9/h1-8,14H",XBILVINOJVKEHG-UHFFFAOYSA-N,?,,6.0,100906
100911,86-26-0,86-26-0,COc1ccccc1-c1ccccc1,"1,1'-Biphenyl, 2-methoxy-",Biphenyl-2-yl methyl ether,biphenyl-2-yl methyl ether,28224,DTXSID6052584,COc1ccccc1-c1ccccc1,"InChI=1S/C13H12O/c1-14-13-10-6-5-9-12(13)11-7-3-2-4-8-11/h2-10H,1H3",NLWCWEGVNJVLAX-UHFFFAOYSA-N,?,,29.0,100911
100915,86-34-0,86-34-0,CN1C(=O)CC(c2ccccc2)C1=O,N-METHYL-2-PHENYL SUCCINIMIDE,Phensuximide,"1-methyl-3-phenylpyrrolidine-2,5-dione",28228,DTXSID4023460,CN1C(=O)CC(c2ccccc2)C1=O,"InChI=1S/C11H11NO2/c1-12-10(13)7-9(11(12)14)8-5-3-2-4-6-8/h2-6,9H,7H2,1H3",WLWFNJKHKGIJNW-UHFFFAOYSA-N,?,,72.0,100915
100920,86-52-2,86-52-2,ClCc1cccc2ccccc21,"Naphthalene, 1-(chloromethyl)-","Naphthalene, 1-(chloromethyl)-",1-(Chloromethyl)naphthalene,28232,DTXSID5058939,ClCc1cccc2ccccc21,"InChI=1S/C11H9Cl/c12-8-10-6-3-5-9-4-1-2-7-11(9)10/h1-7H,8H2",XMWGTKZEDLCVIG-UHFFFAOYSA-N,?,,32.0,100920
100925,86-59-9,86-59-9,OC(=O)c1cccc2ccc[n]c21,8-Quinolinecarboxylic acid,8-Quinolinecarboxylic acid,Quinoline-8-carboxylic acid,28236,DTXSID40235334,OC(=O)c1cccc2ccc[n]c21,"InChI=1S/C10H7NO2/c12-10(13)8-5-1-3-7-4-2-6-11-9(7)8/h1-6H,(H,12,13)",QRDZFPUVLYEQTA-UHFFFAOYSA-N,?,,187.0,100925
100929,86-75-9,86-75-9,O=C(Oc1cccc2ccc[n]c21)c1ccccc1,Benzoxiquine,Benzoxiquine,quinolin-8-yl benzoate,28240,DTXSID5046069,O=C(Oc1cccc2ccc[n]c21)c1ccccc1,InChI=1S/C16H11NO2/c18-16(13-6-2-1-3-7-13)19-14-10-4-8-12-9-5-11-17-15(12)14/h1-11H,BHKPHCKISVSDGV-UHFFFAOYSA-N,?,,119.0,100929
100933,86-86-2,86-86-2,NC(=O)Cc1cccc2ccccc21,1-Naphthaleneacetamide,1-Naphthaleneacetamide,2-(naphthalen-1-yl)acetamide,28244,DTXSID3020914,NC(=O)Cc1cccc2ccccc21,"InChI=1S/C12H11NO/c13-12(14)8-10-6-3-5-9-4-1-2-7-11(9)10/h1-7H,8H2,(H2,13,14)",XFNJVKMNNVCYEK-UHFFFAOYSA-N,?,,184.0,100933
100938,86-97-5,86-97-5,Nc1cccc2cc(O)ccc21,"2-Naphthalenol, 5-amino-","2-Naphthalenol, 5-amino-",5-aminonaphthalen-2-ol,28248,DTXSID3058951,Nc1cccc2cc(O)ccc21,"InChI=1S/C10H9NO/c11-10-3-1-2-7-6-8(12)4-5-9(7)10/h1-6,12H,11H2",FSBRKZMSECKELY-UHFFFAOYSA-N,?,,190.6,100938
100942,87-12-7,87-12-7,Oc1ccc(Br)cc1C(=O)Nc1ccc(Br)cc1,Dibromsalan [USAN:INN],"4',5-Dibromosalicylanilide",5-bromo-N-(4-bromophenyl)-2-hydroxybenzamide,28252,DTXSID1041500,Oc1ccc(Br)cc1C(=O)Nc1ccc(Br)cc1,"InChI=1S/C13H9Br2NO2/c14-8-1-4-10(5-2-8)16-13(18)11-7-9(15)3-6-12(11)17/h1-7,17H,(H,16,18)",CTFFKFYWSOSIAA-UHFFFAOYSA-N,?,,241.5,100942
100946,87-25-2,87-25-2,CCOC(=O)c1ccccc1N,"O-AMINOBENZOIC ACID, ETHYL ESTER",Ethyl anthranilate,ethyl 2-aminobenzoate,28256,DTXSID6025272,CCOC(=O)c1ccccc1N,"InChI=1S/C9H11NO2/c1-2-12-9(11)7-5-3-4-6-8(7)10/h3-6H,2,10H2,1H3",TWLLPUMZVVGILS-UHFFFAOYSA-N,?,,13.0,100946
100950,87-33-2,87-33-2,[O-][N+](=O)O[C@H]1CO[C@H]2[C@@H]1OC[C@H]2O[N+]([O-])=O,"D-GLUCITOL, 1,4:3,6-DIANHYDRO-, DINITRATE",Isosorbide dinitrate,"1,4:3,6-dianhydro-2,5-di-O-nitro-D-glucitol",28260,DTXSID0045832,[O-][N+](=O)OC1COC2C1OCC2O[N+]([O-])=O,"InChI=1S/C6H8N2O8/c9-7(10)15-3-1-13-6-4(16-8(11)12)2-14-5(3)6/h3-6H,1-2H2",MOYKHGMNXAOIAT-UHFFFAOYSA-N,?,,70.0,100950
100954,87-48-9,87-48-9,O=C1c2cc(Br)ccc2NC1=O,5-Bromoisatin,5-Bromoisatin,"5-bromo-1H-indole-2,3-dione",28264,DTXSID30236037,O=C1c2cc(Br)ccc2NC1=O,"InChI=1S/C8H4BrNO2/c9-4-1-2-6-5(3-4)7(11)8(12)10-6/h1-3H,(H,10,11,12)",MBVCESWADCIXJN-UHFFFAOYSA-N,?,,249.5,100954
100958,87-60-5,87-60-5,Cc1c(N)cccc1Cl,2-METHYL-3-CHLOROANILINE,3-Chloro-2-methylaniline,3-chloro-2-methylaniline,28268,DTXSID3024815,Cc1c(N)cccc1Cl,"InChI=1S/C7H8ClN/c1-5-6(8)3-2-4-7(5)9/h2-4H,9H2,1H3",ZUVPLKVDZNDZCM-UHFFFAOYSA-N,?,,1.0,100958
100962,87-65-0,87-65-0,Oc1c(Cl)cccc1Cl,"2,6-DICHLOROPHENOL","2,6-Dichlorophenol","2,6-dichlorophenol",28272,DTXSID2025004,Oc1c(Cl)cccc1Cl,"InChI=1S/C6H4Cl2O/c7-4-2-1-3-5(8)6(4)9/h1-3,9H",HOLHYSJJBXSLMV-UHFFFAOYSA-N,?,,68.5,100962
100966,87-72-9,87-72-9,O[C@@H]1CO[C@@H](O)[C@@H](O)[C@@H]1O,L-Arabinose,L-Arabinopyranose,beta-D-arabinopyranose,28276,DTXSID5052836,OC1COC(O)C(O)C1O,"InChI=1S/C5H10O5/c6-2-1-10-5(9)4(8)3(2)7/h2-9H,1H2",SRBFZHDQGSBBOR-UHFFFAOYSA-N,?,,158.0,100966
100971,87-81-0,87-81-0,OC[C@]1(O)OC[C@@H](O)[C@H](O)[C@@H]1O,D-TAGATOSE,D-Tagatose,alpha-D-tagatopyranose,28280,DTXSID3047897,OCC1(O)OCC(O)C(O)C1O,"InChI=1S/C6H12O6/c7-2-6(11)5(10)4(9)3(8)1-12-6/h3-5,7-11H,1-2H2",LKDRXBCSQODPBY-UHFFFAOYSA-N,?,,134.5,100971
100975,87-86-5,87-86-5,Oc1c(Cl)c(Cl)c(Cl)c(Cl)c1Cl,PENTACHLOROPHENOL,Pentachlorophenol,pentachlorophenol,28284,DTXSID7021106,Oc1c(Cl)c(Cl)c(Cl)c(Cl)c1Cl,InChI=1S/C6HCl5O/c7-1-2(8)4(10)6(12)5(11)3(1)9/h12H,IZUPBVBPLAPZRR-UHFFFAOYSA-N,?,,174.0,100975
100980,87-99-0|488-81-3,87-99-0|488-82-4,O[C@H]([C@@H](O)CO)[C@H](O)CO,"Xylitol, Ribitol",Xylitol,D-xylitol,28288|30602,DTXSID7042514|DTXSID4045979,OC(C(O)CO)C(O)CO,"InChI=1S/C5H12O5/c6-1-3(8)5(10)4(9)2-7/h3-10H,1-2H2",HEBKCHPVOIAQTA-UHFFFAOYSA-N,?,,98.75,100980
100984,88-09-5,88-09-5,CCC(CC)C(O)=O,2-ETHYLBUTYRIC ACID,2-Ethylbutyric acid,2-ethylbutanoic acid,28292,DTXSID2041418,CCC(CC)C(O)=O,"InChI=1S/C6H12O2/c1-3-5(4-2)6(7)8/h5H,3-4H2,1-2H3,(H,7,8)",OXQGTIUCKGYOAA-UHFFFAOYSA-N,?,,-31.8,100984
100988,88-14-2,88-14-2,OC(=O)c1ccco1,2-FURANCARBOXYLIC ACID,2-Furancarboxylic acid,furan-2-carboxylato,28295,DTXSID6041420,OC(=O)c1ccco1,"InChI=1S/C5H4O3/c6-5(7)4-2-1-3-8-4/h1-3H,(H,6,7)",SMNDYUVBFMFKNZ-UHFFFAOYSA-N,?,,133.5,100988
100992,88-18-6,88-18-6,CC(C)(C)c1ccccc1O,O-T-BUTYLPHENOL,2-tert-Butylphenol,2-tert-butylphenol,28299,DTXSID2026525,CC(C)(C)c1ccccc1O,"InChI=1S/C10H14O/c1-10(2,3)8-6-4-5-7-9(8)11/h4-7,11H,1-3H3",WJQOZHYUIDYNHM-UHFFFAOYSA-N,?,,-6.8,100992
100997,88-27-7,88-27-7,CN(C)Cc1cc(c(O)c(c1)C(C)(C)C)C(C)(C)C,Ethyl 703,"2,6-Di-tert-butyl-4-[(dimethylamino)methyl]phenol","2,6-di-tert-butyl-4-[(dimethylamino)methyl]phenol",28303,DTXSID0044997,CN(C)Cc1cc(c(O)c(c1)C(C)(C)C)C(C)(C)C,"InChI=1S/C17H29NO/c1-16(2,3)13-9-12(11-18(7)8)10-14(15(13)19)17(4,5)6/h9-10,19H,11H2,1-8H3",VMZVBRIIHDRYGK-UHFFFAOYSA-N,?,,93.5,100997
101001,88-58-4,88-58-4,CC(C)(C)c1cc(O)c(cc1O)C(C)(C)C,"2,5-Di-tert-butylhydroquinone","2,5-Di-tert-butylbenzene-1,4-diol","2,5-di-tert-butylbenzene-1,4-diol",28307,DTXSID8041248,CC(C)(C)c1cc(O)c(cc1O)C(C)(C)C,"InChI=1S/C14H22O2/c1-13(2,3)9-7-12(16)10(8-11(9)15)14(4,5)6/h7-8,15-16H,1-6H3",JZODKRWQWUWGCD-UHFFFAOYSA-N,?,,218.0,101001
101005,88-67-5,88-67-5,OC(=O)c1ccccc1I,2-IODOBENZOIC ACID,"Benzoic acid, 2-iodo-",2-Iodobenzoic acid,28311,DTXSID6058976,OC(=O)c1ccccc1I,"InChI=1S/C7H5IO2/c8-6-4-2-1-3-5(6)7(9)10/h1-4H,(H,9,10)",CJNZAXGUTKBIHP-UHFFFAOYSA-N,?,,163.0,101005
101009,88-74-4,88-74-4,Nc1ccccc1[N+]([O-])=O,2-NITROANILINE,2-Nitroaniline,2-nitroaniline,28315,DTXSID1025726,Nc1ccccc1[N+]([O-])=O,"InChI=1S/C6H6N2O2/c7-5-3-1-2-4-6(5)8(9)10/h1-4H,7H2",DPJCXCZTLWNFOH-UHFFFAOYSA-N,?,,71.0,101009
101013,88-88-0,88-88-0,[O-][N+](=O)c1cc(c(Cl)c(c1)[N+]([O-])=O)[N+]([O-])=O,"2,4,6-TRINITROCHLOROBENZENE",Picryl chloride,"2-chloro-1,3,5-trinitrobenzene",28319,DTXSID3025910,[O-][N+](=O)c1cc(c(Cl)c(c1)[N+]([O-])=O)[N+]([O-])=O,InChI=1S/C6H2ClN3O6/c7-6-4(9(13)14)1-3(8(11)12)2-5(6)10(15)16/h1-2H,HJRJRUMKQCMYDL-UHFFFAOYSA-N,?,,83.0,101013
101017,89-00-9,89-00-9,OC(=O)c1[n]cccc1C(O)=O,QUINOLINIC ACID,"2,3-Pyridinedicarboxylic acid","pyridine-2,3-dicarboxylic acid",28323,DTXSID8041327,OC(=O)c1[n]cccc1C(O)=O,"InChI=1S/C7H5NO4/c9-6(10)4-2-1-3-8-5(4)7(11)12/h1-3H,(H,9,10)(H,11,12)",GJAWHXHKYYXBSV-UHFFFAOYSA-N,?,,228.5,101017
101021,89-31-6,89-31-6,COc1cc2[C@@H](C)NCCc2cc1O,Salsoline,,,28327,DTXSID70876517,COc1cc2C(C)NCCc2cc1O,"InChI=1S/C11H15NO2/c1-7-9-6-11(14-2)10(13)5-8(9)3-4-12-7/h5-7,12-13H,3-4H2,1-2H3",YTPRLBGPGZHUPD-UHFFFAOYSA-N,?,,221.5,101021
101025,89-40-7,89-40-7,[O-][N+](=O)c1cc2c(cc1)C(=O)NC2=O,4-NITROPHTHALIMIDE,4-Nitrophthalimide,"5-nitro-1H-isoindole-1,3(2H)-dione",28330,DTXSID1025776,[O-][N+](=O)c1cc2c(cc1)C(=O)NC2=O,"InChI=1S/C8H4N2O4/c11-7-5-2-1-4(10(13)14)3-6(5)8(12)9-7/h1-3H,(H,9,11,12)",ANYWGXDASKQYAD-UHFFFAOYSA-N,?,,201.0,101025
101030,89-57-6,89-57-6,Nc1ccc(O)c(c1)C(O)=O,"Benzoic acid, 5-amino-2-hydroxy-",5-Aminosalicylic acid,5-amino-2-hydroxybenzoic acid,28334,DTXSID5024506,Nc1ccc(O)c(c1)C(O)=O,"InChI=1S/C7H7NO3/c8-4-1-2-6(9)5(3-4)7(10)11/h1-3,9H,8H2,(H,10,11)",KBOPZPXVLCULAV-UHFFFAOYSA-N,?,,283.0,101030
101034,89-61-2,89-61-2,[O-][N+](=O)c1cc(Cl)ccc1Cl,"2,5-DICHLORONITROBENZENE","1,4-Dichloro-2-nitrobenzene","1,4-dichloro-2-nitrobenzene",28338,DTXSID7052602,[O-][N+](=O)c1cc(Cl)ccc1Cl,InChI=1S/C6H3Cl2NO2/c7-4-1-2-5(8)6(3-4)9(10)11/h1-3H,RZKKOBGFCAHLCZ-UHFFFAOYSA-N,?,,56.0,101034
101039,89-69-0,89-69-0,[O-][N+](=O)c1cc(Cl)c(Cl)cc1Cl,"2,4,5-TRICHLORONITROBENZENE","2,4,5-Trichloronitrobenzene","1,2,4-trichloro-5-nitrobenzene",28342,DTXSID5026203,[O-][N+](=O)c1cc(Cl)c(Cl)cc1Cl,InChI=1S/C6H2Cl3NO2/c7-3-1-5(9)6(10(11)12)2-4(3)8/h1-2H,IBRBMZRLVYKVRF-UHFFFAOYSA-N,?,,57.5,101039
101043,89-77-0,89-77-0,Nc1cc(Cl)ccc1C(O)=O,2-Amino-4-chlorobenzoic Acid,4-Chloroanthranilic acid,2-Amino-4-chlorobenzoic acid,28346,DTXSID80237473,Nc1cc(Cl)ccc1C(O)=O,"InChI=1S/C7H6ClNO2/c8-4-1-2-5(7(10)11)6(9)3-4/h1-3H,9H2,(H,10,11)",JYYLQSCZISREGY-UHFFFAOYSA-N,?,,232.0,101043
101047,89-84-9,89-84-9,CC(=O)c1ccc(O)cc1O,"Ethanone, 1-(2,4-dihydroxyphenyl)-","Ethanone, 1-(2,4-dihydroxyphenyl)-","1-(2,4-Dihydroxyphenyl)ethanone",28350,DTXSID4058998,CC(=O)c1ccc(O)cc1O,"InChI=1S/C8H8O3/c1-5(9)7-3-2-6(10)4-8(7)11/h2-4,10-11H,1H3",SULYEHHGGXARJS-UHFFFAOYSA-N,?,,146.0,101047
101051,89-95-2,89-95-2,Cc1ccccc1CO,"BENZENEMETHANOL, 2-METHYL-",2-Methylbenzyl alcohol,(2-methylphenyl)methanol,28354,DTXSID8059001,Cc1ccccc1CO,"InChI=1S/C8H10O/c1-7-4-2-3-5-8(7)6-9/h2-5,9H,6H2,1H3",XPNGNIFUDRPBFJ-UHFFFAOYSA-N,?,,38.0,101051
101055,90-01-7,90-01-7,Oc1ccccc1CO,O-HYDROXYBENZYL ALCOHOL,Salicyl alcohol,2-(hydroxymethyl)phenol,28358,DTXSID9045843,Oc1ccccc1CO,"InChI=1S/C7H8O2/c8-5-6-3-1-2-4-7(6)9/h1-4,8-9H,5H2",CQRYARSYNCAZFO-UHFFFAOYSA-N,?,,87.0,101055
101060,90-11-9,NOCAS_861681,Brc1cccc2ccccc21,1-BROMONAPHTHALENE,,,28362,DTXSID30861681,Brc1cccc2ccccc21,InChI=1S/C10H7Br/c11-10-7-3-5-8-4-1-2-6-9(8)10/h1-7H,DLKQHBOKULLWDQ-UHFFFAOYSA-N,?,,-1.8,101060
101064,90-15-3,90-15-3,Oc1cccc2ccccc21,1-NAPHTHOL,1-Naphthol,naphthalen-1-ol,28366,DTXSID6021793,Oc1cccc2ccccc21,"InChI=1S/C10H8O/c11-10-7-3-5-8-4-1-2-6-9(8)10/h1-7,11H",KJCVRFUGPWSIIH-UHFFFAOYSA-N,?,,95.0,101064
101068,90-22-2,90-22-2,[Br-].CC(CC)C(C(=O)OCC[N+](C)(CC)CC)c1ccccc1,Valethamate Bromide,Diethylmethyl(2-3-methyl-2-phenylvaleryloxy)-ethyl)ammonium bromide,"N,N-diethyl-N-methyl-2-[(3-methyl-2-phenylpentanoyl)oxy]ethanaminium bromide",28370,DTXSID5049027,CC(CC)C(C(=O)OCC[N+](C)(CC)CC)c1ccccc1,"InChI=1S/C19H32NO2/c1-6-16(4)18(17-12-10-9-11-13-17)19(21)22-15-14-20(5,7-2)8-3/h9-13,16,18H,6-8,14-15H2,1-5H3/q+1",UPPMZCXMQRVMME-UHFFFAOYSA-N,[Br-],1731.0,101.5,101068
101072,90-30-2,90-30-2,c1cccc2c(cccc21)Nc1ccccc1,"1-NAPHTHALENAMINE, N-PHENYL-",N-Phenyl-1-naphthylamine,N-phenylnaphthalen-1-amine,28374,DTXSID2025892,c1cccc2c(cccc21)Nc1ccccc1,"InChI=1S/C16H13N/c1-2-9-14(10-3-1)17-16-12-6-8-13-7-4-5-11-15(13)16/h1-12,17H",XQVWYOYUZDUNRW-UHFFFAOYSA-N,?,,62.0,101072
101076,90-42-6,90-42-6,O=C1CCCCC1C1CCCCC1,"1,1'-Bicyclohexyl -2-one","1,1'-Bi(cyclohexyl)-2-one","1,1'-bi(cyclohexyl)-2-one",28378,DTXSID8047424,O=C1CCCCC1C1CCCCC1,"InChI=1S/C12H20O/c13-12-9-5-4-8-11(12)10-6-2-1-3-7-10/h10-11H,1-9H2",UOBQDYFTAJKQAL-UHFFFAOYSA-N,?,,-32.0,101076
101080,90-46-0,90-46-0,OC1c2ccccc2Oc2ccccc21,Xanthydrol,9H-Xanthen-9-ol,9H-Xanthen-9-ol,28382,DTXSID8059009,OC1c2ccccc2Oc2ccccc21,"InChI=1S/C13H10O2/c14-13-9-5-1-3-7-11(9)15-12-8-4-2-6-10(12)13/h1-8,13-14H",JFRMYMMIJXLMBB-UHFFFAOYSA-N,?,,127.5,101080
101084,90-59-5,90-59-5,Oc1c(C=O)cc(Br)cc1Br,"3,5-DIBROMSALICYLALDEHYD","3,5-Dibromosalicylaldehyde","3,5-dibromo-2-hydroxybenzaldehyde",28386,DTXSID1021796,Oc1c(C=O)cc(Br)cc1Br,"InChI=1S/C7H4Br2O2/c8-5-1-4(3-10)7(11)6(9)2-5/h1-3,11H",JHZOXYGFQMROFJ-UHFFFAOYSA-N,?,,86.0,101084
101088,90-71-1,90-71-1,COc1cc(cc(c1)OC)O[C@H]1O[C@H](CO)[C@@H](O)[C@H](O)[C@H]1O,Taxicatin,,,28390,DTXSID30877606,COc1cc(cc(c1)OC)OC1OC(CO)C(O)C(O)C1O,"InChI=1S/C14H20O8/c1-19-7-3-8(20-2)5-9(4-7)21-14-13(18)12(17)11(16)10(6-15)22-14/h3-5,10-18H,6H2,1-2H3",JDTIMXKVYWJWHE-UHFFFAOYSA-N,?,,170.0,101088
101093,90-89-1,90-89-1,CN1CCN(CC1)C(=O)N(CC)CC,"1-Piperazinecarboxamide, N,N-diethyl-4-methyl-",Diethylcarbamazine,"N,N-diethyl-4-methylpiperazine-1-carboxamide",28394,DTXSID1022928,CN1CCN(CC1)C(=O)N(CC)CC,"InChI=1S/C10H21N3O/c1-4-12(5-2)10(14)13-8-6-11(3)7-9-13/h4-9H2,1-3H3",RCKMWOKWVGPNJF-UHFFFAOYSA-N,?,,48.0,101093
101097,90-99-3,NOCAS_861684,ClC(c1ccccc1)c1ccccc1,"Benzene, 1,1'-(chloromethylene)bis-",,,28398,DTXSID10861684,ClC(c1ccccc1)c1ccccc1,"InChI=1S/C13H11Cl/c14-13(11-7-3-1-4-8-11)12-9-5-2-6-10-12/h1-10,13H",ZDVDCDLBOLSVGM-UHFFFAOYSA-N,?,,16.0,101097
101101,91-04-3,91-04-3,Cc1cc(CO)c(O)c(CO)c1,"1,3-Benzenedimethanol, 2-hydroxy-5-methyl-","1,3-Benzenedimethanol, 2-hydroxy-5-methyl-","2,6-Bis(hydroxymethyl)-4-methylphenol",28402,DTXSID2059017,Cc1cc(CO)c(O)c(CO)c1,"InChI=1S/C9H12O3/c1-6-2-7(4-10)9(12)8(3-6)5-11/h2-3,10-12H,4-5H2,1H3",KUMMBDBTERQYCG-UHFFFAOYSA-N,?,,129.0,101101
101105,91-15-6,91-15-6,N#Cc1ccccc1C#N,"1,2-DICYANOBENZENE","1,2-Benzenedicarbonitrile","benzene-1,2-dicarbonitrile",28406,DTXSID8029604,N#Cc1ccccc1C#N,InChI=1S/C8H4N2/c9-5-7-3-1-2-4-8(7)6-10/h1-4H,XQZYPMVTSDWCCE-UHFFFAOYSA-N,?,,140.0,101105
101109,91-19-0,91-19-0,c1c[n]c2ccccc2[n]1,QUINOXALINE,Quinoxaline,quinoxaline,28410,DTXSID6049432,c1c[n]c2ccccc2[n]1,InChI=1S/C8H6N2/c1-2-4-8-7(3-1)9-5-6-10-8/h1-6H,XSCHRSMBECNVNS-UHFFFAOYSA-N,?,,28.0,101109
101113,91-33-8,91-33-8,NS(=O)(=O)c1cc2c(cc1Cl)N=C(CSCc1ccccc1)NS2(=O)=O,BENZTHIAZIDE,Benzthiazide,"3-[(benzylsulfanyl)methyl]-6-chloro-2H-1,2,4-benzothiadiazine-7-sulfonamide 1,1-dioxide",28414,DTXSID4022658,NS(=O)(=O)c1cc2c(cc1Cl)N=C(CSCc1ccccc1)NS2(=O)=O,"InChI=1S/C15H14ClN3O4S3/c16-11-6-12-14(7-13(11)25(17,20)21)26(22,23)19-15(18-12)9-24-8-10-4-2-1-3-5-10/h1-7H,8-9H2,(H,18,19)(H2,17,20,21)",NDTSRXAMMQDVSW-UHFFFAOYSA-N,?,,231.5,101113
101118,91-55-4,91-55-4,Cc1c2ccccc2[nH]c1C,"1H-INDOLE, 2,3-DIMETHYL-","1H-Indole, 2,3-dimethyl-","2,3-Dimethyl-1H-indole",28418,DTXSID6059027,Cc1c2ccccc2[nH]c1C,"InChI=1S/C10H11N/c1-7-8(2)11-10-6-4-3-5-9(7)10/h3-6,11H,1-2H3",PYFVEIDRTLBMHG-UHFFFAOYSA-N,?,,106.0,101118
101122,91-60-1,91-60-1,Sc1cc2ccccc2cc1,2-Naphthalenethiol,2-Naphthalenethiol,Naphthalene-2-thiol,28422,DTXSID1059028,Sc1cc2ccccc2cc1,"InChI=1S/C10H8S/c11-10-6-5-8-3-1-2-4-9(8)7-10/h1-7,11H",RFCQDOVPMUSZMN-UHFFFAOYSA-N,?,,81.0,101122
101126,91-66-7,91-66-7,CCN(CC)c1ccccc1,"N,N-DIETHYLANILINE","N,N-Diethylaniline","N,N-diethylaniline",28426,DTXSID8021800,CCN(CC)c1ccccc1,"InChI=1S/C10H15N/c1-3-11(4-2)10-8-6-5-7-9-10/h5-9H,3-4H2,1-2H3",GGSUCNLOZRCGPQ-UHFFFAOYSA-N,?,,-38.8,101126
101130,91-76-9,91-76-9,Nc1[n]c([n]c(N)[n]1)-c1ccccc1,BENZOGUANAMINE,"6-Phenyl-1,3,5-triazine-2,4-diamine","6-phenyl-1,3,5-triazine-2,4-diamine",28430,DTXSID1020142,Nc1[n]c([n]c(N)[n]1)-c1ccccc1,"InChI=1S/C9H9N5/c10-8-12-7(13-9(11)14-8)6-4-2-1-3-5-6/h1-5H,(H4,10,11,12,13,14)",GZVHEAJQGPRDLQ-UHFFFAOYSA-N,?,,226.5,101130
101134,91-94-1,91-94-1,Nc1ccc(cc1Cl)-c1cc(Cl)c(N)cc1,"3,3'-DICHLOROBENZIDINE","3,3'-Dichlorobenzidine","3,3'-dichlorobiphenyl-4,4'-diamine",28434,DTXSID6020432,Nc1ccc(cc1Cl)-c1cc(Cl)c(N)cc1,"InChI=1S/C12H10Cl2N2/c13-9-5-7(1-3-11(9)15)8-2-4-12(16)10(14)6-8/h1-6H,15-16H2",HUWXDEQWWKGHRV-UHFFFAOYSA-N,?,,132.5,101134
101138,92-04-6,NOCAS_870425,Oc1ccc(cc1Cl)-c1ccccc1,4-Phenyl-2-chlorophenol,2-Chloro-4-phenylphenol,2-chlorobiphenyl-4-ol,28438,DTXSID80870425,Oc1ccc(cc1Cl)-c1ccccc1,"InChI=1S/C12H9ClO/c13-11-8-10(6-7-12(11)14)9-4-2-1-3-5-9/h1-8,14H",BZWMYDJJDBFAPE-UHFFFAOYSA-N,?,,77.0,101138
101142,92-24-0,92-24-0,c1c2cc3ccccc3cc2cc2ccccc21,TETRACENE,Naphthacene,TETRACENE,28442,DTXSID4059045,c1c2cc3ccccc3cc2cc2ccccc21,InChI=1S/C18H12/c1-2-6-14-10-18-12-16-8-4-3-7-15(16)11-17(18)9-13(14)5-1/h1-12H,IFLREYGFSNHWGE-UHFFFAOYSA-N,?,,357.0,101142
101146,92-41-1,92-41-1,OS(=O)(=O)c1cc2cc(ccc2cc1)S(O)(=O)=O,"2,7-Naphthalenedisulfonic acid","2,7-Naphthalenedisulfonic acid","Naphthalene-2,7-disulfonic acid",28446,DTXSID3059054,OS(=O)(=O)c1cc2cc(ccc2cc1)S(O)(=O)=O,"InChI=1S/C10H8O6S2/c11-17(12,13)9-3-1-7-2-4-10(18(14,15)16)6-8(7)5-9/h1-6H,(H,11,12,13)(H,14,15,16)",VILFVXYKHXVYAB-UHFFFAOYSA-N,?,,199.0,101146
101150,92-50-2,92-50-2,CCN(CCO)c1ccccc1,"ETHANOL, 2-(ETHYLPHENYLAMINO)-","Ethanol, 2-(ethylphenylamino)-",2-(ethyl-phenylamino)ethanol,28450,DTXSID3059056,CCN(CCO)c1ccccc1,"InChI=1S/C10H15NO/c1-2-11(8-9-12)10-6-4-3-5-7-10/h3-7,12H,2,8-9H2,1H3",HYVGFUIWHXLVNV-UHFFFAOYSA-N,?,,37.0,101150
101154,92-55-7,92-55-7,CC(=O)OC(OC(C)=O)c1ccc(o1)[N+]([O-])=O,2-NO2-5-DI-(ACETOXYMETHYL)FURANE,5-Nitro-2-furanmethanediol diacetate,(5-nitrofuran-2-yl)methanediyl diacetate,28454,DTXSID5020946,CC(=O)OC(OC(C)=O)c1ccc(o1)[N+]([O-])=O,"InChI=1S/C9H9NO7/c1-5(11)15-9(16-6(2)12)7-3-4-8(17-7)10(13)14/h3-4,9H,1-2H3",HSXKWKJCZNRMJO-UHFFFAOYSA-N,?,,91.0,101154
101158,92-66-0,92-66-0,Brc1ccc(cc1)-c1ccccc1,4-BROMOBIPHENYL,4-Bromobiphenyl,4-bromobiphenyl,28458,DTXSID4024640,Brc1ccc(cc1)-c1ccccc1,InChI=1S/C12H9Br/c13-12-8-6-11(7-9-12)10-4-2-1-3-5-10/h1-9H,PKJBWOWQJHHAHG-UHFFFAOYSA-N,?,,91.5,101158
101162,92-71-7,92-71-7,c1[n]c(oc1-c1ccccc1)-c1ccccc1,"OXAZOLE, 2,5-DIPHENYL-","Oxazole, 2,5-diphenyl-","2,5-di(phenyl)-1,3-oxazole",28462,DTXSID7059060,c1[n]c(oc1-c1ccccc1)-c1ccccc1,InChI=1S/C15H11NO/c1-3-7-12(8-4-1)14-11-16-15(17-14)13-9-5-2-6-10-13/h1-11H,CNRNYORZJGVOSY-UHFFFAOYSA-N,?,,74.0,101162
101166,92-84-2,92-84-2,c1cccc2Nc3ccccc3Sc21,PHENOTHIAZINE,Phenothiazine,C12H9NS,28466,DTXSID5021126,c1cccc2Nc3ccccc3Sc21,"InChI=1S/C12H9NS/c1-3-7-11-9(5-1)13-10-6-2-4-8-12(10)14-11/h1-8,13H",WJFKNYWRSNBZNX-UHFFFAOYSA-N,?,,187.5,101166