ChemID,source_casrn,CAS,SMILES,NAME,preferred_name,iupac,MPID,dsstox_substance_id,Canonical_QSARr,InChI_Code_QSARr,InChI Key_QSARr,Salt_Solvent,BP,ID
100681,100-80-1,100-80-1,Cc1cc(C=C)ccc1,M-METHYLSTYRENE,3-Methylstyrene,1-ethenyl-3-methylbenzene,19755,DTXSID9051454,Cc1cc(C=C)ccc1,"InChI=1S/C9H10/c1-3-9-6-4-5-8(2)7-9/h3-7H,1H2,2H3",JZHGRUMIRATHIU-UHFFFAOYSA-N,?,164.0,100681
100682,100-81-2,100-81-2,Cc1cc(CN)ccc1,"Benzenemethanamine, 3-methyl-","Benzenemethanamine, 3-methyl-",(3-methylphenyl)methanamine,19756,DTXSID3059218,Cc1cc(CN)ccc1,"InChI=1S/C8H11N/c1-7-3-2-4-8(5-7)6-9/h2-5H,6,9H2,1H3",RGXUCUWVGKLACF-UHFFFAOYSA-N,?,203.5,100682
100683,100-83-4,100-83-4,Oc1cc(C=O)ccc1,3-HYDROXYBENZALDEHYDE,"Benzaldehyde, 3-hydroxy-",3-hydroxybenzaldehyde,19757,DTXSID7059220,Oc1cc(C=O)ccc1,"InChI=1S/C7H6O2/c8-5-6-2-1-3-7(9)4-6/h1-5,9H",IAVREABSGIHHMO-UHFFFAOYSA-N,?,240.0,100683
100685,100-86-7,100-86-7,CC(C)(O)Cc1ccccc1,"Benzeneethanol, .alpha.,.alpha.-dimethyl-",2-Methyl-1-phenylpropan-2-ol,2-methyl-1-phenylpropan-2-ol,19759,DTXSID1047601,CC(C)(O)Cc1ccccc1,"InChI=1S/C10H14O/c1-10(2,11)8-9-6-4-3-5-7-9/h3-7,11H,8H2,1-2H3",RIWRBSMFKVOJMN-UHFFFAOYSA-N,?,215.0,100685
100686,101-02-0,101-02-0,c1ccccc1OP(Oc1ccccc1)Oc1ccccc1,"Phosphorous acid, triphenyl ester",Triphenyl phosphite,triphenyl phosphite,19760,DTXSID0026252,c1ccccc1OP(Oc1ccccc1)Oc1ccccc1,InChI=1S/C18H15O3P/c1-4-10-16(11-5-1)19-22(20-17-12-6-2-7-13-17)21-18-14-8-3-9-15-18/h1-15H,HVLLSGMXQDNUAL-UHFFFAOYSA-N,?,360.0,100686
100687,101-14-4,101-14-4,Nc1ccc(Cc2cc(Cl)c(N)cc2)cc1Cl,"4,4'-METHYLENEBIS(2-CHLOROANILINE)","4,4'-Methylenebis(2-chloroaniline)","4,4'-methanediylbis(2-chloroaniline)",19761,DTXSID5020865,Nc1ccc(Cc2cc(Cl)c(N)cc2)cc1Cl,"InChI=1S/C13H12Cl2N2/c14-10-6-8(1-3-12(10)16)5-9-2-4-13(17)11(15)7-9/h1-4,6-7H,5,16-17H2",IBOFVQJTBBUKMU-UHFFFAOYSA-N,?,378.9,100687
100689,101-18-8,101-18-8,Oc1cc(ccc1)Nc1ccccc1,"Phenol, 3-(phenylamino)-",3-Hydroxy-N-phenylaniline,3-(phenylamino)phenol,19763,DTXSID1025431,Oc1cc(ccc1)Nc1ccccc1,"InChI=1S/C12H11NO/c14-12-8-4-7-11(9-12)13-10-5-2-1-3-6-10/h1-9,13-14H",NDACNGSDAFKTGE-UHFFFAOYSA-N,?,340.0,100689
100690,101-39-3,101-39-3,CC(=Cc1ccccc1)C=O,"2-Propenal, 2-methyl-3-phenyl-",alpha-Methyl cinnamaldehyde,C10H10O,19764,DTXSID4025587,CC(=Cc1ccccc1)C=O,"InChI=1S/C10H10O/c1-9(8-11)7-10-5-3-2-4-6-10/h2-8H,1H3/b9-7-",VLUMOWNVWOXZAU-CLFYSBASSA-N,?,251.6,100690
100691,101-40-6,101-40-6,CC(CC1CCCCC1)NC,Propylhexedrine,Propylhexedrine,1-cyclohexyl-N-methylpropan-2-amine,19765,DTXSID1023526,CC(CC1CCCCC1)NC,"InChI=1S/C10H21N/c1-9(11-2)8-10-6-4-3-5-7-10/h9-11H,3-8H2,1-2H3",JCRIVQIOJSSCQD-UHFFFAOYSA-N,?,205.0,100691
100693,101-43-9,NOCAS_870442,CC1CCCCC1OC(=O)C=C,2-METHYLCYCLOHEXYL ACRYLATE,Cyclohexyl methacrylate,cyclohexyl methacrylate,19767,DTXSID00870442,CC1CCCCC1OC(=O)C=C,"InChI=1S/C10H16O2/c1-3-10(11)12-9-7-5-4-6-8(9)2/h3,8-9H,1,4-7H2,2H3",SSLASPHAKUVIRG-UHFFFAOYSA-N,?,210.0,100693
100694,101-48-4,101-48-4,COC(Cc1ccccc1)OC,"Benzene, (2,2-dimethoxyethyl)-","(2,2-Dimethoxyethyl)benzene","(2,2-dimethoxyethyl)benzene",19768,DTXSID3047001,COC(Cc1ccccc1)OC,"InChI=1S/C10H14O2/c1-11-10(12-2)8-9-6-4-3-5-7-9/h3-7,10H,8H2,1-2H3",WNJSKZBEWNVKGU-UHFFFAOYSA-N,?,220.0,100694
100695,101-53-1,101-53-1,Oc1ccc(Cc2ccccc2)cc1,4-HYDROXYDIPHENYLMETHANE,4-Benzylphenol,4-benzylphenol,19769,DTXSID9047962,Oc1ccc(Cc2ccccc2)cc1,"InChI=1S/C13H12O/c14-13-8-6-12(7-9-13)10-11-4-2-1-3-5-11/h1-9,14H,10H2",HJSPWKGEPDZNLK-UHFFFAOYSA-N,?,322.0,100695
100697,101-55-3,101-55-3,Brc1ccc(cc1)Oc1ccccc1,4-BROMOPHENYL PHENYL ETHER,p-Bromodiphenyl ether,1-bromo-4-phenoxybenzene,19771,DTXSID8023927,Brc1ccc(cc1)Oc1ccccc1,InChI=1S/C12H9BrO/c13-10-6-8-12(9-7-10)14-11-4-2-1-3-5-11/h1-9H,JDUYPUMQALQRCN-UHFFFAOYSA-N,?,310.1,100697
100698,101-61-1,101-61-1,CN(C)c1ccc(Cc2ccc(cc2)N(C)C)cc1,BIS(4-DIMETHYLAMINOPHENYL)METHANE,"4,4'-Methylenebis(N,N-dimethylaniline)","4,4'-methanediylbis(N,N-dimethylaniline)",19772,DTXSID5020869,CN(C)c1ccc(Cc2ccc(cc2)N(C)C)cc1,"InChI=1S/C17H22N2/c1-18(2)16-9-5-14(6-10-16)13-15-7-11-17(12-8-15)19(3)4/h5-12H,13H2,1-4H3",JNRLEMMIVRBKJE-UHFFFAOYSA-N,?,390.0,100698
100699,101-77-9,101-77-9,Nc1ccc(Cc2ccc(N)cc2)cc1,DI-(P-AMINOPHENYL)METHANE,"4,4'-Methylenedianiline",C13H14N2,19773,DTXSID6022422,Nc1ccc(Cc2ccc(N)cc2)cc1,"InChI=1S/C13H14N2/c14-12-5-1-10(2-6-12)9-11-3-7-13(15)8-4-11/h1-8H,9,14-15H2",YBRVSVVVWCFQMG-UHFFFAOYSA-N,?,398.0,100699
100701,101-81-5,101-81-5,C(c1ccccc1)c1ccccc1,"BENZENE, 1,1'-METHYLENEBIS-",Diphenylmethane,"1,1'-methanediyldibenzene",19775,DTXSID1041891,C(c1ccccc1)c1ccccc1,"InChI=1S/C13H12/c1-3-7-12(8-4-1)11-13-9-5-2-6-10-13/h1-10H,11H2",CZZYITDELCSZES-UHFFFAOYSA-N,?,265.0,100701
100702,101-82-6,101-82-6,C(c1cccc[n]1)c1ccccc1,2-BENZYLPYRIDINE,"Pyridine, 2-(phenylmethyl)-",2-(Phenylmethyl)pyridine,19776,DTXSID5059240,C(c1cccc[n]1)c1ccccc1,"InChI=1S/C12H11N/c1-2-6-11(7-3-1)10-12-8-4-5-9-13-12/h1-9H,10H2",PCFUWBOSXMKGIP-UHFFFAOYSA-N,?,277.0,100702
100703,101-83-7,101-83-7,C1CCCCC1NC1CCCCC1,DICYCLOHEXYLAMINE,Dicyclohexylamine,N-cyclohexylcyclohexanamine,19777,DTXSID6025018,C1CCCCC1NC1CCCCC1,"InChI=1S/C12H23N/c1-3-7-11(8-4-1)13-12-9-5-2-6-10-12/h11-13H,1-10H2",XBPCUCUWBYBCDP-UHFFFAOYSA-N,?,255.8,100703
100705,101-97-3,101-97-3,CCOC(=O)Cc1ccccc1,"BENZENEACETIC ACID, ETHYL ESTER",Ethyl phenylacetate,ethyl phenylacetate,19779,DTXSID6044353,CCOC(=O)Cc1ccccc1,"InChI=1S/C10H12O2/c1-2-12-10(11)8-9-6-4-3-5-7-9/h3-7H,2,8H2,1H3",DULCUDSUACXJJC-UHFFFAOYSA-N,?,227.0,100705
100706,101-99-5,101-99-5,CCOC(=O)Nc1ccccc1,N-PHENYL ETHYLCARBAMATE,"Carbamic acid, phenyl-, ethyl ester",Ethyl N-phenylcarbamate,19780,DTXSID0059243,CCOC(=O)Nc1ccccc1,"InChI=1S/C9H11NO2/c1-2-12-9(11)10-8-6-4-3-5-7-8/h3-7H,2H2,1H3,(H,10,11)",LBKPGNUOUPTQKA-UHFFFAOYSA-N,?,238.0,100706
100707,102-04-5,102-04-5,O=C(Cc1ccccc1)Cc1ccccc1,DIBENZYL KETONE,"2-Propanone, 1,3-diphenyl-","1,3-di(phenyl)propan-2-one",19781,DTXSID5059244,O=C(Cc1ccccc1)Cc1ccccc1,"InChI=1S/C15H14O/c16-15(11-13-7-3-1-4-8-13)12-14-9-5-2-6-10-14/h1-10H,11-12H2",YFKBXYGUSOXJGS-UHFFFAOYSA-N,?,331.0,100707
100709,102-09-0,102-09-0,O=C(Oc1ccccc1)Oc1ccccc1,"CARBONIC ACID, DIPHENYL ESTER",Diphenylcarbonate,diphenyl carbonate,19783,DTXSID3020540,O=C(Oc1ccccc1)Oc1ccccc1,InChI=1S/C13H10O3/c14-13(15-11-7-3-1-4-8-11)16-12-9-5-2-6-10-12/h1-10H,ROORDVPLFPIABK-UHFFFAOYSA-N,?,306.0,100709
100710,102-13-6,102-13-6,CC(C)COC(=O)Cc1ccccc1,"Benzeneacetic acid, 2-methylpropyl ester",Isobutyl phenylacetate,isobutyl phenylacetate,19784,DTXSID6051512,CC(C)COC(=O)Cc1ccccc1,"InChI=1S/C12H16O2/c1-10(2)9-14-12(13)8-11-6-4-3-5-7-11/h3-7,10H,8-9H2,1-2H3",RJASFPFZACBKBE-UHFFFAOYSA-N,?,247.0,100710
100711,102-17-0,102-17-0,COc1ccc(COC(=O)Cc2ccccc2)cc1,"Benzeneacetic acid, (4-methoxyphenyl)methyl este","Benzeneacetic acid, (4-methoxyphenyl)methyl ester",(4-methoxyphenyl)methyl 2-phenylacetate,19785,DTXSID5059246,COc1ccc(COC(=O)Cc2ccccc2)cc1,"InChI=1S/C16H16O3/c1-18-15-9-7-14(8-10-15)12-19-16(17)11-13-5-3-2-4-6-13/h2-10H,11-12H2,1H3",VCYWCSZLXMMLLE-UHFFFAOYSA-N,?,370.0,100711
100713,102-25-0,25340-18-5,CCc1cc(CC)cc(CC)c1,"1,3,5-TRIETHYLBENZENE","Benzene, triethyl-","1,3,5-triethylbenzene",19787,DTXSID9027867,CCc1cc(CC)cc(CC)c1,"InChI=1S/C12H18/c1-4-10-7-11(5-2)9-12(6-3)8-10/h7-9H,4-6H2,1-3H3",WJYMPXJVHNDZHD-UHFFFAOYSA-N,?,215.9,100713
100714,102-27-2,102-27-2,Cc1cccc(c1)NCC,"Benzenamine, N-ethyl-3-methyl-",N-Ethyl-3-methylaniline,N-ethyl-3-methylaniline,19788,DTXSID4021848,Cc1cccc(c1)NCC,"InChI=1S/C9H13N/c1-3-10-9-6-4-5-8(2)7-9/h4-7,10H,3H2,1-2H3",GUYMMHOQXYZMJQ-UHFFFAOYSA-N,?,221.0,100714
100715,102-29-4,102-29-4,CC(=O)Oc1cccc(O)c1,M-HYDROXYPHENYL ACETATE,Resorcinol monoacetate,3-hydroxyphenyl acetate,19789,DTXSID6045901,CC(=O)Oc1cccc(O)c1,"InChI=1S/C8H8O3/c1-6(9)11-8-4-2-3-7(10)5-8/h2-5,10H,1H3",ZZPKZRHERLGEKA-UHFFFAOYSA-N,?,283.0,100715
100718,102-50-1,102-50-1,Cc1cc(ccc1N)OC,"BENZENAMINE, 4-METHOXY-2-METHYL-",4-Methoxy-2-methylaniline,4-methoxy-2-methylaniline,19791,DTXSID2020349,Cc1cc(ccc1N)OC,"InChI=1S/C8H11NO/c1-6-5-7(10-2)3-4-8(6)9/h3-5H,9H2,1-2H3",CDGNLUSBENXDGG-UHFFFAOYSA-N,?,248.5,100718
100719,102-52-3,102-52-3,COC(CC(OC)OC)OC,"Propane, 1,1,3,3-tetramethoxy-","Propane, 1,1,3,3-tetramethoxy-","1,1,3,3-Tetramethoxypropane",19792,DTXSID4059255,COC(CC(OC)OC)OC,"InChI=1S/C7H16O4/c1-8-6(9-2)5-7(10-3)11-4/h6-7H,5H2,1-4H3",XHTYQFMRBQUCPX-UHFFFAOYSA-N,?,183.0,100719
100720,102-53-4,102-53-4,CCN(CN(CC)CC)CC,"Methanediamine, N,N,N',N'-tetraethyl-","Methanediamine, N,N,N',N'-tetraethyl-","N,N,N',N'-Tetraethylmethanediamine",19793,DTXSID9059256,CCN(CN(CC)CC)CC,"InChI=1S/C9H22N2/c1-5-10(6-2)9-11(7-3)8-4/h5-9H2,1-4H3",UNEXJVCWJSHFNN-UHFFFAOYSA-N,?,165.8,100720
100723,102-69-2,102-69-2,CCCN(CCC)CCC,TRIPROPYLAMINE,Tripropylamine,"N,N-dipropylpropan-1-amine",19795,DTXSID9021849,CCCN(CCC)CCC,"InChI=1S/C9H21N/c1-4-7-10(8-5-2)9-6-3/h4-9H2,1-3H3",YFTHZRPMJXBUME-UHFFFAOYSA-N,?,156.0,100723
100724,102-70-5,102-70-5,C=CCN(CC=C)CC=C,TRIALLYLAMINE,Triallylamine,"N,N-di(prop-2-en-1-yl)prop-2-en-1-amine",19796,DTXSID5026174,C=CCN(CC=C)CC=C,"InChI=1S/C9H15N/c1-4-7-10(8-5-2)9-6-3/h4-6H,1-3,7-9H2",VPYJNCGUESNPMV-UHFFFAOYSA-N,?,155.5,100724
100725,102-71-6,102-71-6,OCCN(CCO)CCO,TRIETHANOLAMINE,Triethanolamine,"2,2',2''-nitrilotriethanol",19797,DTXSID9021392,OCCN(CCO)CCO,"InChI=1S/C6H15NO3/c8-4-1-7(2-5-9)3-6-10/h8-10H,1-6H2",GSEJCLTVZPLZKY-UHFFFAOYSA-N,?,335.4,100725
100727,102-79-4,102-79-4,CCCCN(CCO)CCO,"Ethanol, 2,2'-(butylimino)bis-",N-Butyldiethanolamine,"2,2'-(butylimino)diethanol",19799,DTXSID1044354,CCCCN(CCO)CCO,"InChI=1S/C8H19NO2/c1-2-3-4-9(5-7-10)6-8-11/h10-11H,2-8H2,1H3",GVNHOISKXMSMPX-UHFFFAOYSA-N,?,275.0,100727
100728,102-81-8,102-81-8,CCCCN(CCO)CCCC,2-Dibutylaminoethanol,2-(Dibutylamino)ethanol,2-(dibutylamino)ethanol,19800,DTXSID2024953,CCCCN(CCO)CCCC,"InChI=1S/C10H23NO/c1-3-5-7-11(9-10-12)8-6-4-2/h12H,3-10H2,1-2H3",IWSZDQRGNFLMJS-UHFFFAOYSA-N,?,229.0,100728
100729,102-82-9,102-82-9,CCCCN(CCCC)CCCC,TRI N-BUTYLAMINE,Tributylamine,"N,N-dibutylbutan-1-amine",19801,DTXSID4026183,CCCCN(CCCC)CCCC,"InChI=1S/C12H27N/c1-4-7-10-13(11-8-5-2)12-9-6-3/h4-12H2,1-3H3",IMFACGCPASFAPR-UHFFFAOYSA-N,?,216.5,100729
100731,102-86-3,102-86-3,CCCCCCN(CCCCCC)CCCCCC,"1-Hexanamine, N,N-dihexyl-","1-Hexanamine, N,N-dihexyl-","N,N-dihexylhexan-1-amine",19803,DTXSID8059263,CCCCCCN(CCCCCC)CCCCCC,"InChI=1S/C18H39N/c1-4-7-10-13-16-19(17-14-11-8-5-2)18-15-12-9-6-3/h4-18H2,1-3H3",DIAIBWNEUYXDNL-UHFFFAOYSA-N,?,261.7,100731
100732,102-92-1,102-92-1,O=C(Cl)C=Cc1ccccc1,"2-Propenoyl chloride, 3-phenyl-","2-Propenoyl chloride, 3-phenyl-",,19804,DTXSID3059264,O=C(Cl)C=Cc1ccccc1,InChI=1S/C9H7ClO/c10-9(11)7-6-8-4-2-1-3-5-8/h1-7H/b7-6+,WOGITNXCNOTRLK-VOTSOKGWSA-N,?,257.0,100732
100733,102-97-6,102-97-6,CC(C)NCc1ccccc1,"BENZENEMETHANAMINE, N-(1-METHYLETHYL)-","Benzenemethanamine, N-(1-methylethyl)-",N-(phenylmethyl)propan-2-amine,19805,DTXSID8059265,CC(C)NCc1ccccc1,"InChI=1S/C10H15N/c1-9(2)11-8-10-6-4-3-5-7-10/h3-7,9,11H,8H2,1-2H3",LYBKPDDZTNUNNM-UHFFFAOYSA-N,?,200.0,100733
100735,103-11-7,103-11-7,CCCCC(COC(=O)C=C)CC,2-ETHYLHEXYL ACRYLATE,2-Ethylhexyl acrylate,2-ethylhexyl prop-2-enoate,19807,DTXSID9025297,CCCCC(COC(=O)C=C)CC,"InChI=1S/C11H20O2/c1-4-7-8-10(5-2)9-13-11(12)6-3/h6,10H,3-5,7-9H2,1-2H3",GOXQRTZXKQZDDN-UHFFFAOYSA-N,?,213.5,100735
100736,103-23-1,103-23-1,CCCCC(COC(=O)CCCCC(=O)OCC(CCCC)CC)CC,DI-2-ETHYLHEXYL ADIPATE,Di(2-ethylhexyl) adipate,bis(2-ethylhexyl) hexanedioate,19808,DTXSID0020606,CCCCC(COC(=O)CCCCC(=O)OCC(CCCC)CC)CC,"InChI=1S/C22H42O4/c1-5-9-13-19(7-3)17-25-21(23)15-11-12-16-22(24)26-18-20(8-4)14-10-6-2/h19-20H,5-18H2,1-4H3",SAOKZLXYCUGLFA-UHFFFAOYSA-N,?,417.0,100736
100737,103-25-3,103-25-3,COC(=O)CCc1ccccc1,METHYL B-PHENYLPROPIONATE,"Benzenepropanoic acid, methyl ester",Methyl 3-phenylpropanoate,19809,DTXSID2059271,COC(=O)CCc1ccccc1,"InChI=1S/C10H12O2/c1-12-10(11)8-7-9-5-3-2-4-6-9/h2-6H,7-8H2,1H3",RPUSRLKKXPQSGP-UHFFFAOYSA-N,?,238.5,100737
100739,103-29-7,103-29-7,C(Cc1ccccc1)c1ccccc1,BIBENZYL,Bibenzyl,"1,1'-ethane-1,2-diyldibenzene",19811,DTXSID8041668,C(Cc1ccccc1)c1ccccc1,"InChI=1S/C14H14/c1-3-7-13(8-4-1)11-12-14-9-5-2-6-10-14/h1-10H,11-12H2",QWUWMCYKGHVNAV-UHFFFAOYSA-N,?,284.0,100739
100740,103-30-0|588-59-0,103-30-0|588-59-0,c1ccccc1/C=C/c1ccccc1,"STILBENE (TRANS), STILBENE",trans-Stilbene,"1,1'-(E)-ethene-1,2-diyldibenzene",19812|21379,DTXSID4026050|DTXSID6060424,c1ccccc1C=Cc1ccccc1,InChI=1S/C14H12/c1-3-7-13(8-4-1)11-12-14-9-5-2-6-10-14/h1-12H/b12-11+,PJANXHGTPQOBST-VAWYXSNFSA-N,?,306.75,100740
100741,103-32-2,103-32-2,C(Nc1ccccc1)c1ccccc1,N-BENZYLANILINE,"Benzenemethanamine, N-phenyl-",N-(phenylmethyl)aniline,19813,DTXSID7059272,C(Nc1ccccc1)c1ccccc1,"InChI=1S/C13H13N/c1-3-7-12(8-4-1)11-14-13-9-5-2-6-10-13/h1-10,14H,11H2",GTWJETSWSUWSEJ-UHFFFAOYSA-N,?,306.5,100741
100743,103-36-6,103-36-6,CCOC(=O)C=Cc1ccccc1,"CINNAMIC ACID, ETHYL ESTER",Ethyl cinnamate,ethyl 3-phenylprop-2-enoate,19815,DTXSID9022520,CCOC(=O)C=Cc1ccccc1,"InChI=1S/C11H12O2/c1-2-13-11(12)9-8-10-6-4-3-5-7-10/h3-9H,2H2,1H3/b9-8+",KBEBGUQPQBELIU-CMDGGOBGSA-N,?,271.0,100743
100744,103-37-7,103-37-7,CCCC(=O)OCc1ccccc1,"Butanoic acid, phenylmethyl ester",Benzyl butyrate,benzyl butanoate,19816,DTXSID7047510,CCCC(=O)OCc1ccccc1,"InChI=1S/C11H14O2/c1-2-6-11(12)13-9-10-7-4-3-5-8-10/h3-5,7-8H,2,6,9H2,1H3",VONGZNXBKCOUHB-UHFFFAOYSA-N,?,239.0,100744
100745,103-38-8,103-38-8,CC(C)CC(=O)OCc1ccccc1,"BUTANOIC ACID, 3-METHYL-, PHENYLMETHYL ESTER",Benzyl 3-methylbutanoate,benzyl 3-methylbutanoate,19817,DTXSID1047603,CC(C)CC(=O)OCc1ccccc1,"InChI=1S/C12H16O2/c1-10(2)8-12(13)14-9-11-6-4-3-5-7-11/h3-7,10H,8-9H2,1-2H3",HVJKZICIMIWFCP-UHFFFAOYSA-N,?,245.0,100745
100747,103-45-7,103-45-7,CC(=O)OCCc1ccccc1,B-PHENYLETHYL ACETATE,2-Phenylethyl acetate,2-phenylethyl acetate,19819,DTXSID7044506,CC(=O)OCCc1ccccc1,"InChI=1S/C10H12O2/c1-9(11)12-8-7-10-5-3-2-4-6-10/h2-6H,7-8H2,1H3",MDHYEMXUFSJLGV-UHFFFAOYSA-N,?,232.6,100747
100748,103-48-0,103-48-0,CC(C)C(=O)OCCc1ccccc1,"Propanoic acid, 2-methyl-, 2-phenylethyl ester",2-Phenylethyl 2-methylpropanoate,2-phenylethyl 2-methylpropanoate,19820,DTXSID7044764,CC(C)C(=O)OCCc1ccccc1,"InChI=1S/C12H16O2/c1-10(2)12(13)14-9-8-11-6-4-3-5-7-11/h3-7,10H,8-9H2,1-2H3",JDQVBGQWADMTAM-UHFFFAOYSA-N,?,250.0,100748
100749,103-50-4,103-50-4,C(OCc1ccccc1)c1ccccc1,DIBENZYL ETHER,Dibenzyl ether,C14H14O,19821,DTXSID5025819,C(OCc1ccccc1)c1ccccc1,"InChI=1S/C14H14O/c1-3-7-13(8-4-1)11-15-12-14-9-5-2-6-10-14/h1-10H,11-12H2",MHDVGSVTJDSBDK-UHFFFAOYSA-N,?,298.0,100749
100751,103-63-9,103-63-9,BrCCc1ccccc1,(2-BROMOETHYL)BENZENE,Phenethyl bromide,(2-bromoethyl)benzene,19823,DTXSID1033876,BrCCc1ccccc1,"InChI=1S/C8H9Br/c9-7-6-8-4-2-1-3-5-8/h1-5H,6-7H2",WMPPDTMATNBGJN-UHFFFAOYSA-N,?,219.0,100751
100752,103-65-1,103-65-1,CCCc1ccccc1,N-PROPYLBENZENE,Propylbenzene,propylbenzene,19824,DTXSID3042219,CCCc1ccccc1,"InChI=1S/C9H12/c1-2-6-9-7-4-3-5-8-9/h3-5,7-8H,2,6H2,1H3",ODLMAHJVESYWTB-UHFFFAOYSA-N,?,159.2,100752
100753,103-67-3,103-67-3,CNCc1ccccc1,N-METHYLBENZYLAMINE,N-Methylbenzylamine,N-methyl-1-phenylmethanamine,19825,DTXSID9048439,CNCc1ccccc1,"InChI=1S/C8H11N/c1-9-7-8-5-3-2-4-6-8/h2-6,9H,7H2,1H3",RIWRFSMVIUAEBX-UHFFFAOYSA-N,?,180.5,100753
100755,103-70-8,103-70-8,O=CNc1ccccc1,FORMANILIDE,Formanilide,N-phenylformamide,19827,DTXSID3025338,O=CNc1ccccc1,"InChI=1S/C7H7NO/c9-6-8-7-4-2-1-3-5-7/h1-6H,(H,8,9)",DYDNPESBYVVLBO-UHFFFAOYSA-N,?,271.0,100755
100756,103-71-9,103-71-9,O=C=Nc1ccccc1,PHENYL ISOCYANATE,Phenyl isocyanate,isocyanatobenzene,19828,DTXSID5051521,O=C=Nc1ccccc1,InChI=1S/C7H5NO/c9-6-8-7-4-2-1-3-5-7/h1-5H,DGTNSSLYPYDJGL-UHFFFAOYSA-N,?,163.0,100756
100758,103-73-1,103-73-1,CCOc1ccccc1,ETHOXYBENZENE,"Benzene, ethoxy-",Ethoxybenzene,19829,DTXSID7059278,CCOc1ccccc1,"InChI=1S/C8H10O/c1-2-9-8-6-4-3-5-7-8/h3-7H,2H2,1H3",DLRJIFUOBPOJNS-UHFFFAOYSA-N,?,169.8,100758
100760,103-79-7,103-79-7,CC(=O)Cc1ccccc1,1-PHENYL-2-PROPANONE,"2-Propanone, 1-phenyl-",1-phenylpropan-2-one,19831,DTXSID1059280,CC(=O)Cc1ccccc1,"InChI=1S/C9H10O/c1-8(10)7-9-5-3-2-4-6-9/h2-6H,7H2,1H3",QCCDLTOVEPVEJK-UHFFFAOYSA-N,?,216.5,100760
100761,103-82-2,103-82-2,OC(=O)Cc1ccccc1,PHENYLACETIC ACID,Phenylacetic acid,phenylacetic acid,19832,DTXSID2021656,OC(=O)Cc1ccccc1,"InChI=1S/C8H8O2/c9-8(10)6-7-4-2-1-3-5-7/h1-5H,6H2,(H,9,10)",WLJVXDMOQOGPHL-UHFFFAOYSA-N,?,265.5,100761
100762,103-83-3,103-83-3,CN(C)Cc1ccccc1,"N,N-DIMETHYLBENZYLAMINE","N,N-Dimethylbenzylamine","N,N-dimethyl-1-phenylmethanamine",19833,DTXSID8021854,CN(C)Cc1ccccc1,"InChI=1S/C9H13N/c1-10(2)8-9-6-4-3-5-7-9/h3-7H,8H2,1-2H3",XXBDWLFCJWSEKW-UHFFFAOYSA-N,?,181.0,100762
100764,103-89-9,103-89-9,Cc1ccc(cc1)NC(C)=O,4-METHYLACETANILIDE,N-Acetyl-p-toluidine,N-(4-methylphenyl)acetamide,19835,DTXSID6024414,Cc1ccc(cc1)NC(C)=O,"InChI=1S/C9H11NO/c1-7-3-5-9(6-4-7)10-8(2)11/h3-6H,1-2H3,(H,10,11)",YICAMJWHIUMFDI-UHFFFAOYSA-N,?,307.0,100764
100765,104-09-6,104-09-6,Cc1ccc(CC=O)cc1,"Benzeneacetaldehyde, 4-methyl-",(4-Methylphenyl)acetaldehyde,(4-methylphenyl)acetaldehyde,19836,DTXSID0051524,Cc1ccc(CC=O)cc1,"InChI=1S/C9H10O/c1-8-2-4-9(5-3-8)6-7-10/h2-5,7H,6H2,1H3",CIXAYNMKFFQEFU-UHFFFAOYSA-N,?,221.5,100765
100766,104-12-1,104-12-1,O=C=Nc1ccc(Cl)cc1,1-CHLORO-4-ISOCYANATOBENZENE,4-Chlorophenyl isocyanate,1-chloro-4-isocyanatobenzene,19837,DTXSID7040732,O=C=Nc1ccc(Cl)cc1,InChI=1S/C7H4ClNO/c8-6-1-3-7(4-2-6)9-5-10/h1-4H,ADAKRBAJFHTIEW-UHFFFAOYSA-N,?,203.5,100766
100768,104-21-2,104-21-2,CC(=O)OCc1ccc(cc1)OC,"Benzenemethanol, 4-methoxy-, acetate",4-Methoxybenzyl acetate,C10H12O3,19839,DTXSID1044770,CC(=O)OCc1ccc(cc1)OC,"InChI=1S/C10H12O3/c1-8(11)13-7-9-3-5-10(12-2)6-4-9/h3-6H,7H2,1-2H3",HFNGYHHRRMSKEU-UHFFFAOYSA-N,?,270.0,100768
100769,104-45-0,104-45-0,CCCc1ccc(cc1)OC,"Benzene, 1-methoxy-4-propyl-",4-Propylanisole,1-methoxy-4-propylbenzene,19840,DTXSID0042325,CCCc1ccc(cc1)OC,"InChI=1S/C10H14O/c1-3-4-9-5-7-10(11-2)8-6-9/h5-8H,3-4H2,1-2H3",KBHWKXNXTURZCD-UHFFFAOYSA-N,?,211.5,100769
100770,104-46-1|4180-23-8,104-46-1|4180-23-8,CC=Cc1ccc(cc1)OC,"ANETHOLE, ANETHOLE (TRANS)",Anethole,1-methoxy-4-(prop-1-en-1-yl)benzene,19841|23593,DTXSID4020086|DTXSID9020087,CC=Cc1ccc(cc1)OC,"InChI=1S/C10H12O/c1-3-4-9-5-7-10(11-2)8-6-9/h3-8H,1-2H3/b4-3+",RUVINXPYWBROJD-ONEGZZNKSA-N,?,234.5,100770
100772,104-49-4,104-49-4,O=C=Nc1ccc(cc1)N=C=O,"Benzene, 1,4-diisocyanato-","1,4-Diisocyanatobenzene","1,4-diisocyanatobenzene",19843,DTXSID3025883,O=C=Nc1ccc(cc1)N=C=O,InChI=1S/C8H4N2O2/c11-5-9-7-1-2-8(4-3-7)10-6-12/h1-4H,ALQLPWJFHRMHIU-UHFFFAOYSA-N,?,260.0,100772
100773,104-50-7,104-50-7,CCCCC1CCC(=O)O1,"2(3H)-Furanone, 5-butyldihydro-",4-Octanolide,5-butyldihydrofuran-2(3H)-one,19844,DTXSID1047609,CCCCC1CCC(=O)O1,"InChI=1S/C8H14O2/c1-2-3-4-7-5-6-8(9)10-7/h7H,2-6H2,1H3",IPBFYZQJXZJBFQ-UHFFFAOYSA-N,?,234.0,100773
100774,104-51-8,104-51-8,CCCCc1ccccc1,N-BUTYLBENZENE,Butylbenzene,butylbenzene,19845,DTXSID6022472,CCCCc1ccccc1,"InChI=1S/C10H14/c1-2-3-7-10-8-5-4-6-9-10/h4-6,8-9H,2-3,7H2,1H3",OCKPCBLVNKHBMX-UHFFFAOYSA-N,?,183.3,100774
100776,104-53-0,104-53-0,O=CCCc1ccccc1,Benzenepropanal,3-Phenylpropanal,3-phenylpropanal,19847,DTXSID0047610,O=CCCc1ccccc1,"InChI=1S/C9H10O/c10-8-4-7-9-5-2-1-3-6-9/h1-3,5-6,8H,4,7H2",YGCZTXZTJXYWCO-UHFFFAOYSA-N,?,224.0,100776
100777,104-54-1,104-54-1,OCC=Cc1ccccc1,CINNAMYL ALCOHOL,3-Phenyl-2-propen-1-ol,3-phenylprop-2-en-1-ol,19848,DTXSID9041491,OCC=Cc1ccccc1,"InChI=1S/C9H10O/c10-8-4-7-9-5-2-1-3-6-9/h1-7,10H,8H2/b7-4+",OOCCDEMITAIZTP-QPJJXVBHSA-N,?,250.0,100777
100778,104-55-2,104-55-2,O=CC=Cc1ccccc1,3-PHENYL-2-PROPENAL,3-Phenylprop-2-enal,C9H8O,19849,DTXSID1024835,O=CC=Cc1ccccc1,InChI=1S/C9H8O/c10-8-4-7-9-5-2-1-3-6-9/h1-8H/b7-4+,KJPRLNWUNMBNBZ-QPJJXVBHSA-N,?,246.0,100778
100780,104-64-3,NOCAS_861713,O=COCCCc1ccccc1,"Benzenepropanol, formate",,,19851,DTXSID40861713,O=COCCCc1ccccc1,"InChI=1S/C10H12O2/c11-9-12-8-4-7-10-5-2-1-3-6-10/h1-3,5-6,9H,4,7-8H2",AMHRXSOVSAQOKL-UHFFFAOYSA-N,?,250.0,100780
100781,104-65-4,NOCAS_861714,O=COCC=Cc1ccccc1,"2-Propen-1-ol, 3-phenyl-, formate",,,19852,DTXSID00861714,O=COCC=Cc1ccccc1,"InChI=1S/C10H10O2/c11-9-12-8-4-7-10-5-2-1-3-6-10/h1-7,9H,8H2/b7-4+",LBHJXKYRYCUGPD-QPJJXVBHSA-N,?,252.0,100781