ChemID,source_casrn,CAS,SMILES,NAME,preferred_name,iupac,MPID,dsstox_substance_id,Canonical_QSARr,InChI_Code_QSARr,InChI Key_QSARr,Salt_Solvent,BP,ID
103393,821-06-7,821-06-7,BrC/C=C/CBr,"2-Butene, 1,4-dibromo-, (E)-","(E)-1,4-Dibromo-2-butene","(2E)-1,4-dibromobut-2-ene",22357,DTXSID8024941,BrCC=CCBr,"InChI=1S/C4H6Br2/c5-3-1-2-4-6/h1-2H,3-4H2/b2-1+",RMXLHIUHKIVPAB-OWOJBTEDSA-N,?,203.0,103393
103394,821-07-8|2235-12-3|2612-46-6,2235-12-3,C=CC=CC=C,"TRANS-1,3,5-HEXATRIENE, 1,3,5-HEXATRIENE, CIS-1,3,5-HEXATRIENE","1,3,5-Hexatriene",?,22358|23146|23275,DTXSID3062283,C=CC=CC=C,"InChI=1S/C6H8/c1-3-5-6-4-2/h3-6H,1-2H2/b6-5+",AFVDZBIIBXWASR-AATRIKPKSA-N,?,78.0,103394
103395,821-08-9,821-08-9,C=CC#CC=C,"1,5-HEXADIEN-3-YNE",Divinylacetylene,"hexa-1,5-dien-3-yne",22359,DTXSID70231561,C=CC#CC=C,"InChI=1S/C6H6/c1-3-5-6-4-2/h3-4H,1-2H2",AUBDSFLQOBEOPX-UHFFFAOYSA-N,?,85.0,103395
103397,821-10-3,821-10-3,ClCC#CCCl,"2-BUTYNE, 1,4-DICHLORO-","1,4-Dichloro-2-butyne","1,4-Dichlorobut-2-yne",22361,DTXSID0061165,ClCC#CCCl,InChI=1S/C4H4Cl2/c5-3-1-2-4-6/h3-4H2,RCHDLEVSZBOHOS-UHFFFAOYSA-N,?,165.5,103397
103398,821-25-0,821-25-0,CCCCCCC(Cl)Cl,"HEPTANE, 1,1-DICHLORO-","1,1-Dichloroheptane","1,1-DICHLOROHEPTANE",22362,DTXSID90231563,CCCCCCC(Cl)Cl,"InChI=1S/C7H14Cl2/c1-2-3-4-5-6-7(8)9/h7H,2-6H2,1H3",MEMYUUBNXYUWRG-UHFFFAOYSA-N,?,191.0,103398
103399,821-55-6,821-55-6,CCCCCCCC(C)=O,2-NONANONE,2-Nonanone,nonan-2-one,22363,DTXSID2022125,CCCCCCCC(C)=O,"InChI=1S/C9H18O/c1-3-4-5-6-7-8-9(2)10/h3-8H2,1-2H3",VKCYHJWLYTUGCC-UHFFFAOYSA-N,?,195.3,103399
103403,821-99-8,NOCAS_870778,ClCCCCCCCCCCl,"Nonane, 1,9-dichloro-",,,22367,DTXSID30870778,ClCCCCCCCCCCl,InChI=1S/C9H18Cl2/c10-8-6-4-2-1-3-5-7-9-11/h1-9H2,JMGRNJZUQCEJDB-UHFFFAOYSA-N,?,260.0,103403
103404,822-06-0,822-06-0,O=C=NCCCCCCN=C=O,HEXAMETHYLENE DIISOCYANATE,"1,6-Diisocyanatohexane","1,6-diisocyanatohexane",22368,DTXSID4024143,O=C=NCCCCCCN=C=O,InChI=1S/C8H12N2O2/c11-7-9-5-3-1-2-4-6-10-8-12/h1-6H2,RRAMGCGOFNQTLD-UHFFFAOYSA-N,?,255.0,103404
103405,822-35-5,822-35-5,C1CC=C1,Cyclobutene,Cyclobutene,Cyclobutene,22369,DTXSID60231616,C1CC=C1,"InChI=1S/C4H6/c1-2-4-3-1/h1-2H,3-4H2",CFBGXYDUODCMNS-UHFFFAOYSA-N,?,2.0,103405
103407,822-38-8,822-38-8,S=C1SCCS1,"1,3-Dithiolane-2-thione","1,3-Dithiolane-2-thione","1,3-Dithiolane-2-thione",22371,DTXSID9061172,S=C1SCCS1,InChI=1S/C3H4S3/c4-3-5-1-2-6-3/h1-2H2,XCWPBWWTGHQKDR-UHFFFAOYSA-N,?,307.0,103407
103409,822-66-2,NOCAS_870779,OC1CC=CCC1,3-CYCLOHEXEN-1-OL,3-Cyclohexen-1-ol,C6H10O,22372,DTXSID90870779,OC1CC=CCC1,"InChI=1S/C6H10O/c7-6-4-2-1-3-5-6/h1-2,6-7H,3-5H2",ABZZOPIABWYXSN-UHFFFAOYSA-N,?,164.0,103409
103410,822-67-3,3413-44-3,O[C@@H]1CCCC=C1,2-CYCLOHEXEN-1-OL,"2-Cyclohexen-1-ol, (1R)-",C6H10O,22373,DTXSID80440607,OC1CCCC=C1,"InChI=1S/C6H10O/c7-6-4-2-1-3-5-6/h2,4,6-7H,1,3,5H2",PQANGXXSEABURG-UHFFFAOYSA-N,?,164.0,103410
103412,822-86-6|10498-35-8,822-86-6,Cl[C@@H]1CCCC[C@H]1Cl,"1,2-DICHLOROCYCLOHEXANE -TRANS, CYCLOHEXANE, 1,2-DICHLORO-, CIS-","trans-1,2-Dichlorocyclohexane","(1R,2R)-1,2-dichlorocyclohexane",22375|24100,DTXSID7022126,ClC1CCCCC1Cl,"InChI=1S/C6H10Cl2/c7-5-3-1-2-4-6(5)8/h5-6H,1-4H2",GZEZIBFVJYNETN-UHFFFAOYSA-N,?,200.2,103412
103413,823-40-5,823-40-5,Cc1c(N)cccc1N,"2,6-DIAMINOTOLUENE","2,6-Toluenediamine","2-methylbenzene-1,3-diamine",22376,DTXSID4027319,Cc1c(N)cccc1N,"InChI=1S/C7H10N2/c1-5-6(8)3-2-4-7(5)9/h2-4H,8-9H2,1H3",RLYCRLGLCUXUPO-UHFFFAOYSA-N,?,260.0,103413
103414,823-76-7,823-76-7,CC(=O)C1CCCCC1,"ETHANONE, 1-CYCLOHEXYL-",Cyclohexyl methyl ketone,1-cyclohexylethanone,22377,DTXSID40231674,CC(=O)C1CCCCC1,"InChI=1S/C8H14O/c1-7(9)8-5-3-2-4-6-8/h8H,2-6H2,1H3",RIFKADJTWUGDOV-UHFFFAOYSA-N,?,180.5,103414
103416,824-55-5,824-55-5,Cc1cc(C)c(CCl)cc1,"Benzene, 1-(chloromethyl)-2,4-dimethyl-","Benzene, 1-(chloromethyl)-2,4-dimethyl-","1-(Chloromethyl)-2,4-dimethylbenzene",22379,DTXSID9061178,Cc1cc(C)c(CCl)cc1,"InChI=1S/C9H11Cl/c1-7-3-4-9(6-10)8(2)5-7/h3-5H,6H2,1-2H3",BETNPSBTDMBHCZ-UHFFFAOYSA-N,?,215.5,103416
103417,824-63-5,824-63-5,CC1Cc2ccccc2C1,"1H-INDENE, 2,3-DIHYDRO-2-METHYL-","1H-Indene, 2,3-dihydro-2-methyl-","2-Methyl-2,3-Dihydro-1H-indene",22380,DTXSID2073932,CC1Cc2ccccc2C1,"InChI=1S/C10H12/c1-8-6-9-4-2-3-5-10(9)7-8/h2-5,8H,6-7H2,1H3",MWGYLUXMIMSOTM-UHFFFAOYSA-N,?,195.0,103417
103418,824-72-6,824-72-6,O=P(Cl)(Cl)c1ccccc1,"Phosphonic dichloride, phenyl-",Phenylphosphonic dichloride,phenylphosphonic dichloride,22381,DTXSID5044732,O=P(Cl)(Cl)c1ccccc1,"InChI=1S/C6H5Cl2OP/c7-10(8,9)6-4-2-1-3-5-6/h1-5H",IBDMRHDXAQZJAP-UHFFFAOYSA-N,?,258.0,103418
103420,826-18-6,NOCAS_870782,CCCC=Cc1ccccc1,"BENZENE, 1-PENTENYL-",,,22383,DTXSID20870782,CCCC=Cc1ccccc1,"InChI=1S/C11H14/c1-2-3-5-8-11-9-6-4-7-10-11/h4-10H,2-3H2,1H3/b8-5+",KHMYONNPZWOTKW-VMPITWQZSA-N,?,217.0,103420
103421,826-36-8,826-36-8,CC1(C)CC(=O)CC(C)(C)N1,"4-Piperidinone, 2,2,6,6-tetramethyl-","2,2,6,6-Tetramethyl-4-piperidone","2,2,6,6-tetramethylpiperidin-4-one",22384,DTXSID4041527,CC1(C)CC(=O)CC(C)(C)N1,"InChI=1S/C9H17NO/c1-8(2)5-7(11)6-9(3,4)10-8/h10H,5-6H2,1-4H3",JWUXJYZVKZKLTJ-UHFFFAOYSA-N,?,205.0,103421
103422,826-77-7,826-77-7,Cc1cc2c(cc1)[n]ccc2C,"2,6-Dimethylquinoline","4,6-Dimethylquinoline","4,6-Dimethylquinoline",22385,DTXSID10231909,Cc1cc2c(cc1)[n]ccc2C,"InChI=1S/C11H11N/c1-8-3-4-11-10(7-8)9(2)5-6-12-11/h3-7H,1-2H3",JTLZWQVUPZYROB-UHFFFAOYSA-N,?,273.5,103422
103424,827-08-7,827-08-7,Fc1c(Br)c(Br)c(F)c(F)c1F,"1,2-Dibromo-3,4,5,6-tetrafluorobenzene","1,2-Dibromo-3,4,5,6-tetrafluorobenzene","1,2-Dibromo-3,4,5,6-tetrafluorobenzene",22387,DTXSID50231968,Fc1c(Br)c(Br)c(F)c(F)c1F,InChI=1S/C6Br2F4/c7-1-2(8)4(10)6(12)5(11)3(1)9,IPLUWQPTPKNBRD-UHFFFAOYSA-N,?,198.0,103424
103425,827-15-6,827-15-6,Fc1c(F)c(F)c(I)c(F)c1F,Iodopentafluorobenzene,Pentafluoroiodobenzene,"1,2,3,4,5-pentafluoro-6-iodobenzene",22388,DTXSID10231969,Fc1c(F)c(F)c(I)c(F)c1F,InChI=1S/C6F5I/c7-1-2(8)4(10)6(12)5(11)3(1)9,OPYHNLNYCRZOGY-UHFFFAOYSA-N,?,166.0,103425
103426,827-16-7,827-16-7,CN1C(=O)N(C)C(=O)N(C)C1=O,"1,3,5-TRIAZINE-2,4,6(1H,3H,5H)-TRIONE, 1,3,5-TRI",Trimethyl isocyanurate,"1,3,5-trimethyl-1,3,5-triazinane-2,4,6-trione",22389,DTXSID9074856,CN1C(=O)N(C)C(=O)N(C)C1=O,InChI=1S/C6H9N3O3/c1-7-4(10)8(2)6(12)9(3)5(7)11/h1-3H3,AHWDQDMGFXRVFB-UHFFFAOYSA-N,?,274.0,103426
103428,831-81-2,831-81-2,Clc1ccc(Cc2ccccc2)cc1,(4-Benzyl)chlorobenzene,"Benzene, 1-chloro-4-(phenylmethyl)-",1-chloro-4-(phenylmethyl)benzene,22391,DTXSID1073238,Clc1ccc(Cc2ccccc2)cc1,"InChI=1S/C13H11Cl/c14-13-8-6-12(7-9-13)10-11-4-2-1-3-5-11/h1-9H,10H2",NPOGRKGIBGKRNI-UHFFFAOYSA-N,?,299.0,103428
103429,832-53-1,832-53-1,O=S(=O)(Cl)c1c(F)c(F)c(F)c(F)c1F,Pentafluorobenzenesulfonyl chloride,Pentafluorobenzenesulfonyl chloride,"2,3,4,5,6-pentafluorobenzenesulfonyl chloride",22392,DTXSID50232213,O=S(=O)(Cl)c1c(F)c(F)c(F)c(F)c1F,"InChI=1S/C6ClF5O2S/c7-15(13,14)6-4(11)2(9)1(8)3(10)5(6)12",UOJCTEGNHXRPKO-UHFFFAOYSA-N,?,210.5,103429
103430,832-71-3,832-71-3,Cc1cc2c3ccccc3ccc2cc1,3-METHYLPHENANTHRENE,3-Methylphenanthrene,3-methylphenanthrene,22393,DTXSID7052731,Cc1cc2c3ccccc3ccc2cc1,"InChI=1S/C15H12/c1-11-6-7-13-9-8-12-4-2-3-5-14(12)15(13)10-11/h2-10H,1H3",GKYWZUBZZBHZKU-UHFFFAOYSA-N,?,350.0,103430
103432,835-11-0,835-11-0,Oc1ccccc1C(=O)c1ccccc1O,"METHANONE, BIS(2-HYDROXYPHENYL)-","2,2'-Dihydroxybenzophenone",bis(2-hydroxyphenyl)methanone,22395,DTXSID8022404,Oc1ccccc1C(=O)c1ccccc1O,"InChI=1S/C13H10O3/c14-11-7-3-1-5-9(11)13(16)10-6-2-4-8-12(10)15/h1-8,14-15H",YIYBRXKMQFDHSM-UHFFFAOYSA-N,?,333.0,103432
103433,835-64-3,835-64-3,Oc1ccccc1-c1[n]c2ccccc2o1,2-(2-HYDROXYPHENYL)BENZOXAZOLE,"Phenol, 2-(2-benzoxazolyl)-",,22396,DTXSID4061200,Oc1ccccc1-c1[n]c2ccccc2o1,"InChI=1S/C13H9NO2/c15-11-7-3-1-5-9(11)13-14-10-6-2-4-8-12(10)16-13/h1-8,15H",GHGZVWOTJDLREY-UHFFFAOYSA-N,?,338.0,103433
103434,838-41-5,28061-11-2,c1oc([n]c1-c1ccccc1)-c1ccccc1,"OXAZOLE, 2,4-DIPHENYL-",Diphenyloxazole,"2,4-di(phenyl)-1,3-oxazole",22397,DTXSID90182344,c1oc([n]c1-c1ccccc1)-c1ccccc1,InChI=1S/C15H11NO/c1-3-7-12(8-4-1)14-11-17-15(16-14)13-9-5-2-6-10-13/h1-11H,VUPXKQHLZATXTR-UHFFFAOYSA-N,?,339.0,103434
103436,868-85-9,868-85-9,COP(=O)OC,DIMETHYL PHOSPHITE,Dimethyl hydrogen phosphite,dimethyl phosphonate,22399,DTXSID5020493,COP(=O)OC,"InChI=1S/C2H7O3P/c1-4-6(3)5-2/h6H,1-2H3",HZCDANOFLILNSA-UHFFFAOYSA-N,?,170.5,103436
103437,869-29-4,869-29-4,CC(=O)OC(C=C)OC(C)=O,ALLYLIDENEDIACETATE,"2-Propene-1,1-diol diacetate","prop-1-ene-3,3-diyl diacetate",22400,DTXSID8041450,CC(=O)OC(C=C)OC(C)=O,"InChI=1S/C7H10O4/c1-4-7(10-5(2)8)11-6(3)9/h4,7H,1H2,2-3H3",TXECTBGVEUDNSL-UHFFFAOYSA-N,?,180.0,103437
103438,870-23-5,870-23-5,C=CCS,ALLYL MERCAPTAN,2-Propene-1-thiol,prop-2-ene-1-thiol,22401,DTXSID2061226,C=CCS,"InChI=1S/C3H6S/c1-2-3-4/h2,4H,1,3H2",ULIKDJVNUXNQHS-UHFFFAOYSA-N,?,65.0,103438
103440,871-83-0,871-83-0,CCCCCCCC(C)C,2-METHYLNONANE,"Alkanes, C9-11-iso-",2-methylnonane,22403,DTXSID80873239,CCCCCCCC(C)C,"InChI=1S/C10H22/c1-4-5-6-7-8-9-10(2)3/h10H,4-9H2,1-3H3",SGVYKUFIHHTIFL-UHFFFAOYSA-N,?,167.1,103440
103441,871-84-1,871-84-1,C#CCCCCC#C,"1,7-Octadiyne","1,7-Octadiyne","octa-1,7-diyne",22404,DTXSID1061233,C#CCCCCC#C,"InChI=1S/C8H10/c1-3-5-7-8-6-4-2/h1-2H,5-8H2",DSOJWVLXZNRKCS-UHFFFAOYSA-N,?,135.5,103441
103442,872-05-9,872-05-9,CCCCCCCCC=C,1-DECENE,1-Decene,dec-1-ene,22405,DTXSID8027329,CCCCCCCCC=C,"InChI=1S/C10H20/c1-3-5-7-9-10-8-6-4-2/h3H,1,4-10H2,2H3",AFFLGGQVNFXPEV-UHFFFAOYSA-N,?,170.5,103442
103444,872-50-4,872-50-4,CN1CCCC1=O,N-METHYLPYRROLIDONE,N-Methyl-2-pyrrolidone,1-methylpyrrolidin-2-one,22407,DTXSID6020856,CN1CCCC1=O,"InChI=1S/C5H9NO/c1-6-4-2-3-5(6)7/h2-4H2,1H3",SECXISVLQFMRJM-UHFFFAOYSA-N,?,202.0,103444
103445,872-53-7,872-53-7,O=CC1CCCC1,CYCLOPENTANECARBOXALDEHYDE,Cyclopentanecarbaldehyde,Cyclopentanecarbaldehyde,22408,DTXSID10236176,O=CC1CCCC1,"InChI=1S/C6H10O/c7-5-6-3-1-2-4-6/h5-6H,1-4H2",VELDYOPRLMJFIK-UHFFFAOYSA-N,?,133.5,103445
103446,872-55-9,NOCAS_862452,CCc1ccc[s]1,2-ETHYLTHIOPHENE,,,22409,DTXSID90862452,CCc1ccc[s]1,"InChI=1S/C6H8S/c1-2-6-4-3-5-7-6/h3-5H,2H2,1H3",JCCCMAAJYSNBPR-UHFFFAOYSA-N,?,134.0,103446
103449,873-49-4,873-49-4,C1CC1c1ccccc1,CYCLOPROPYLBENZENE,Cyclopropylbenzene,Cyclopropylbenzene,22411,DTXSID2074297,C1CC1c1ccccc1,"InChI=1S/C9H10/c1-2-4-8(5-3-1)9-6-7-9/h1-5,9H,6-7H2",VFSFCYAQBIPUSL-UHFFFAOYSA-N,?,173.6,103449
103450,873-63-2,873-63-2,OCc1cccc(Cl)c1,M-CHLOROBENZYL ALCOHOL,3-Chlorobenzyl alcohol,,22412,DTXSID70236273,OCc1cccc(Cl)c1,"InChI=1S/C7H7ClO/c8-7-3-1-2-6(4-7)5-9/h1-4,9H,5H2",ZSRDNPVYGSFUMD-UHFFFAOYSA-N,?,237.0,103450
103452,873-76-7,873-76-7,OCc1ccc(Cl)cc1,P-CHLOROBENZYL ALCOHOL,4-Chlorobenzenemethanol,,22414,DTXSID7073937,OCc1ccc(Cl)cc1,"InChI=1S/C7H7ClO/c8-7-3-1-6(5-9)2-4-7/h1-4,9H,5H2",PTHGDVCPCZKZKR-UHFFFAOYSA-N,?,235.0,103452
103454,874-35-1,874-35-1,Cc1cc2CCCc2cc1,"1H-INDENE, 2,3-DIHYDRO-5-METHYL-",5-Methylindan,"5-methyl-2,3-dihydro-1H-indene",22416,DTXSID5061245,Cc1cc2CCCc2cc1,"InChI=1S/C10H12/c1-8-5-6-9-3-2-4-10(9)7-8/h5-7H,2-4H2,1H3",RFXBCGVZEJEYGG-UHFFFAOYSA-N,?,202.0,103454
103455,874-41-9,874-41-9,CCc1ccc(C)cc1C,"1,3-DIMETHYL-4-ETHYLBENZENE","1,3-Dimethyl-4-ethylbenzene","1-Ethyl-2,4-dimethylbenzene",22417,DTXSID0061246,CCc1ccc(C)cc1C,"InChI=1S/C10H14/c1-4-10-6-5-8(2)7-9(10)3/h5-7H,4H2,1-3H3",MEMBJMDZWKVOTB-UHFFFAOYSA-N,?,188.4,103455
103456,874-42-0,874-42-0,O=Cc1ccc(Cl)cc1Cl,"2,4-Dichlorobenzaldehyde","2,4-Dichlorobenzaldehyde","2,4-dichlorobenzaldehyde",22418,DTXSID1022130,O=Cc1ccc(Cl)cc1Cl,InChI=1S/C7H4Cl2O/c8-6-2-1-5(4-10)7(9)3-6/h1-4H,YSFBEAASFUWWHU-UHFFFAOYSA-N,?,233.0,103456
103458,874-63-5,874-63-5,COc1cc(C)cc(C)c1,"3,5-Dimethylanisole","3,5-Dimethylanisole","1-methoxy-3,5-dimethylbenzene",22420,DTXSID40236326,COc1cc(C)cc(C)c1,"InChI=1S/C9H12O/c1-7-4-8(2)6-9(5-7)10-3/h4-6H,1-3H3",JCHJBEZBHANKGA-UHFFFAOYSA-N,?,194.0,103458
103459,874-79-3,874-79-3,CCCSc1ccccc1,"BENZENE, (PROPYLTHIO)-","Benzene, (propylthio)- (9CI)",propylsulfanylbenzene,22421,DTXSID60236328,CCCSc1ccccc1,"InChI=1S/C9H12S/c1-2-8-10-9-6-4-3-5-7-9/h3-7H,2,8H2,1H3",NWYDLOBJQIJDGH-UHFFFAOYSA-N,?,220.0,103459
103460,874-90-8,874-90-8,COc1ccc(cc1)C#N,"BENZONITRILE, 4-METHOXY-",4-Anisonitrile,4-methoxybenzonitrile,22422,DTXSID0052596,COc1ccc(cc1)C#N,"InChI=1S/C8H7NO/c1-10-8-4-2-7(6-9)3-5-8/h2-5H,1H3",XDJAAZYHCCRJOK-UHFFFAOYSA-N,?,256.5,103460
103462,875-40-1,NOCAS_870790,Cc1c(Cl)cc(Cl)c(Cl)c1Cl,"2,3,4,6-Tetrachlorotoluene",,,22424,DTXSID50870790,Cc1c(Cl)cc(Cl)c(Cl)c1Cl,"InChI=1S/C7H4Cl4/c1-3-4(8)2-5(9)7(11)6(3)10/h2H,1H3",UURGNCIPRITNBJ-UHFFFAOYSA-N,?,276.5,103462
103463,875-59-2,875-59-2,Cc1cc(O)ccc1C(C)=O,3-Methyl-4-acetylphenol,4-Hydroxy-2-methylacetophenone,1-(4-hydroxy-2-methylphenyl)ethanone,22425,DTXSID60236363,Cc1cc(O)ccc1C(C)=O,"InChI=1S/C9H10O2/c1-6-5-8(11)3-4-9(6)7(2)10/h3-5,11H,1-2H3",IAMNVCJECQWBLZ-UHFFFAOYSA-N,?,313.0,103463
103464,877-11-2,877-11-2,Cc1c(Cl)c(Cl)c(Cl)c(Cl)c1Cl,"2,3,4,5,6-PENTACHLOROTOLUENE",,,22426,DTXSID10870791,Cc1c(Cl)c(Cl)c(Cl)c(Cl)c1Cl,InChI=1S/C7H3Cl5/c1-2-3(8)5(10)7(12)6(11)4(2)9/h1H3,AVSIMRGRHWKCAY-UHFFFAOYSA-N,?,301.0,103464
103466,877-44-1,877-44-1,CCc1ccc(CC)cc1CC,"BENZENE, 1,2,4-TRIETHYL-","Benzene, 1,2,4-triethyl-","1,2,4-TRIETHYLBENZENE",22428,DTXSID9075034,CCc1ccc(CC)cc1CC,"InChI=1S/C12H18/c1-4-10-7-8-11(5-2)12(6-3)9-10/h7-9H,4-6H2,1-3H3",WNLWIOJSURYFIB-UHFFFAOYSA-N,?,218.0,103466
103467,877-48-5,877-48-5,Cc1cc(OC(C)=O)c(C)cc1,"(2,5-Dimethylphenyl)acetate","2,5-Xylyl acetate","(2,5-dimethylphenyl) acetate",22429,DTXSID40236568,Cc1cc(OC(C)=O)c(C)cc1,"InChI=1S/C10H12O2/c1-7-4-5-8(2)10(6-7)12-9(3)11/h4-6H,1-3H3",SBOSLJVYJPZJNH-UHFFFAOYSA-N,?,237.0,103467
103468,877-53-2,877-53-2,Cc1cc(C)c(cc1)OC(C)=O,"2,4-DIMETHYLPHENYL ACETATE","Phenol, 2,4-dimethyl-, acetate","(2,4-dimethylphenyl) acetate",22430,DTXSID00236569,Cc1cc(C)c(cc1)OC(C)=O,"InChI=1S/C10H12O2/c1-7-4-5-10(8(2)6-7)12-9(3)11/h4-6H,1-3H3",BNXJYMYPBQBNSW-UHFFFAOYSA-N,?,226.0,103468
103470,880-78-4,880-78-4,[O-][N+](=O)c1c(F)c(F)c(F)c(F)c1F,Pentafluoronitrobenzene,Pentafluoronitrobenzene,"1,2,3,4,5-pentafluoro-6-nitrobenzene",22432,DTXSID90236755,[O-][N+](=O)c1c(F)c(F)c(F)c(F)c1F,InChI=1S/C6F5NO2/c7-1-2(8)4(10)6(12(13)14)5(11)3(1)9,INUOFQAJCYUOJR-UHFFFAOYSA-N,?,159.5,103470
103471,882-33-7,882-33-7,c1ccccc1SSc1ccccc1,DIPHENYL DISULFIDE,Diphenyl disulfide,diphenyl disulfide,22433,DTXSID6022131,c1ccccc1SSc1ccccc1,InChI=1S/C12H10S2/c1-3-7-11(8-4-1)13-14-12-9-5-2-6-10-12/h1-10H,GUUVPOWQJOLRAS-UHFFFAOYSA-N,?,310.0,103471
103472,883-93-2,883-93-2,c1ccccc1-c1[n]c2ccccc2[s]1,2-PHENYLBENZTHIAZOLE,2-Phenylbenzothiazole,"2-phenyl-1,3-benzothiazole",22434,DTXSID80236946,c1ccccc1-c1[n]c2ccccc2[s]1,InChI=1S/C13H9NS/c1-2-6-10(7-3-1)13-14-11-8-4-5-9-12(11)15-13/h1-9H,XBHOUXSGHYZCNH-UHFFFAOYSA-N,?,371.0,103472
103475,917-92-0,917-92-0,CC(C)(C)C#C,"1-BUTYNE, 3,3-DIMETHYL-","3,3-Dimethylbutyne","3,3-dimethylbut-1-yne",22436,DTXSID70238671,CC(C)(C)C#C,"InChI=1S/C6H10/c1-5-6(2,3)4/h1H,2-4H3",PPWNCLVNXGCGAF-UHFFFAOYSA-N,?,37.7,103475
103476,917-93-1,917-93-1,CC(C)(Cl)C=O,"Propanal, 2-chloro-2-methyl-","Propanal, 2-chloro-2-methyl-",2-CHLORO-2-METHYLPROPANAL,22437,DTXSID2061276,CC(C)(Cl)C=O,"InChI=1S/C4H7ClO/c1-4(2,5)3-6/h3H,1-2H3",UJZCIPIWDBMTLY-UHFFFAOYSA-N,?,90.0,103476
103477,918-00-3,918-00-3,CC(=O)C(Cl)(Cl)Cl,"1,1,1-TRICHLOROACETONE","1,1,1-Trichloropropanone","1,1,1-trichloropropan-2-one",22438,DTXSID5021679,CC(=O)C(Cl)(Cl)Cl,"InChI=1S/C3H3Cl3O/c1-2(7)3(4,5)6/h1H3",SMZHKGXSEAGRTI-UHFFFAOYSA-N,?,149.0,103477
103480,918-84-3,918-84-3,CC(Cl)(CC)CC,"PENTANE, 3-CHLORO-3-METHYL-","Pentane, 3-chloro-3-methyl-",3-chloro-3-methylpentane,22441,DTXSID80238703,CC(Cl)(CC)CC,"InChI=1S/C6H13Cl/c1-4-6(3,7)5-2/h4-5H2,1-3H3",SGWJUIFOPCZXMR-UHFFFAOYSA-N,?,116.0,103480
103481,918-85-4,NOCAS_870794,CCC(C)(O)C=C,"1-Penten-3-ol, 3-methyl-",,,22442,DTXSID90870794,CCC(C)(O)C=C,"InChI=1S/C6H12O/c1-4-6(3,7)5-2/h4,7H,1,5H2,2-3H3",HFYAEUXHCMTPOL-UHFFFAOYSA-N,?,117.5,103481
103482,919-30-2,919-30-2,CCO[Si](CCCN)(OCC)OCC,gamma-Aminopropyltriethoxysilane,3-Aminopropyltriethoxysilane,3-(triethoxysilyl)propan-1-amine,22443,DTXSID2027333,CCO[Si](CCCN)(OCC)OCC,"InChI=1S/C9H23NO3Si/c1-4-11-14(12-5-2,13-6-3)9-7-8-10/h4-10H2,1-3H3",WYTZZXDRDKSJID-UHFFFAOYSA-N,?,217.0,103482
103484,919-94-8,919-94-8,CC(C)(CC)OCC,ETHYL(TERT-AMYL) ETHER,"Butane, 2-ethoxy-2-methyl-",2-Ethoxy-2-methylbutane,22445,DTXSID7061279,CC(C)(CC)OCC,"InChI=1S/C7H16O/c1-5-7(3,4)8-6-2/h5-6H2,1-4H3",KFRVYYGHSPLXSZ-UHFFFAOYSA-N,?,102.0,103484
103485,920-37-6,920-37-6,C=C(Cl)C#N,"2-Propenenitrile, 2-chloro-",2-Chloroacrylonitrile,2-chloroacrylonitrile,22446,DTXSID6052613,C=C(Cl)C#N,InChI=1S/C3H2ClN/c1-3(4)2-5/h1H2,OYUNTGBISCIYPW-UHFFFAOYSA-N,?,88.5,103485
103486,920-46-7,920-46-7,CC(=C)C(=O)Cl,METHACRYLOYL CHLORIDE,Methacryloyl chloride,2-methylprop-2-enoyl chloride,22447,DTXSID6061280,CC(=C)C(=O)Cl,"InChI=1S/C4H5ClO/c1-3(2)4(5)6/h1H2,2H3",VHRYZQNGTZXDNX-UHFFFAOYSA-N,?,96.0,103486
103488,921-03-9,921-03-9,O=C(CCl)C(Cl)Cl,"1,1,3-Trichloroacetone","1,1,3-Trichloropropanone","1,1,3-trichloropropan-2-one",22449,DTXSID4021680,O=C(CCl)C(Cl)Cl,"InChI=1S/C3H3Cl3O/c4-1-2(7)3(5)6/h3H,1H2",ZWILTCXCTVMANU-UHFFFAOYSA-N,?,172.0,103488
103489,921-47-1,NOCAS_870795,CC(C)C(C)C(C)CC,"2,3,4-TRIMETHYLHEXANE",,,22450,DTXSID50870795,CC(C)C(C)C(C)CC,"InChI=1S/C9H20/c1-6-8(4)9(5)7(2)3/h7-9H,6H2,1-5H3",RUTNOQHQISEBGT-UHFFFAOYSA-N,?,139.1,103489
103490,922-28-1,NOCAS_870796,CC(CC)C(C)CCC,"HEPTANE, 3,4-DIMETHYL-",,,22451,DTXSID10870796,CC(CC)C(C)CCC,"InChI=1S/C9H20/c1-5-7-9(4)8(3)6-2/h8-9H,5-7H2,1-4H3",MAKRYGRRIKSDES-UHFFFAOYSA-N,?,140.6,103490
103494,922-65-6,922-65-6,C=CC(O)C=C,"1,4-PENTADIEN-3-OL","Penta-1,4-dien-3-ol","Penta-1,4-dien-3-ol",22455,DTXSID00238922,C=CC(O)C=C,"InChI=1S/C5H8O/c1-3-5(6)4-2/h3-6H,1-2H2",ICMWSAALRSINTC-UHFFFAOYSA-N,?,115.5,103494
103495,922-67-8,922-67-8,COC(=O)C#C,"Propiolic acid, methyl ester","Propiolic acid, methyl ester",methyl prop-2-ynoate,22456,DTXSID60238923,COC(=O)C#C,"InChI=1S/C4H4O2/c1-3-4(5)6-2/h1H,2H3",IMAKHNTVDGLIRY-UHFFFAOYSA-N,?,104.0,103495
103496,923-99-9,923-99-9,CCCOP(OCCC)OCCC,Tripropyl phosphite,Tripropyl phosphite,Tripropyl phosphite,22457,DTXSID80238960,CCCOP(OCCC)OCCC,"InChI=1S/C9H21O3P/c1-4-7-10-13(11-8-5-2)12-9-6-3/h4-9H2,1-3H3",QOPBTFMUVTXWFF-UHFFFAOYSA-N,?,206.5,103496
103498,924-43-6,NOCAS_862472,CCC(C)ON=O,"Nitrous acid, 1-methylpropyl ester",,,22459,DTXSID90862472,CCC(C)ON=O,"InChI=1S/C4H9NO2/c1-3-4(2)7-5-6/h4H,3H2,1-2H3",NFGNZNFBQAGBJA-UHFFFAOYSA-N,?,68.5,103498
103499,924-50-5,924-50-5,CC(C)=CC(=O)OC,"2-Butenoic acid, 3-methyl-, methyl ester","2-Butenoic acid, 3-methyl-, methyl ester",methyl 3-methylbut-2-enoate,22460,DTXSID1061283,CC(C)=CC(=O)OC,"InChI=1S/C6H10O2/c1-5(2)4-6(7)8-3/h4H,1-3H3",FZIBCCGGICGWBP-UHFFFAOYSA-N,?,136.5,103499
103500,924-52-7,NOCAS_871813,CCC(C)O[N+]([O-])=O,"NITRIC ACID, 1-METHYLPROPYL ESTER",,,22461,DTXSID00871813,CCC(C)O[N+]([O-])=O,"InChI=1S/C4H9NO3/c1-3-4(2)8-5(6)7/h4H,3H2,1-2H3",DYONNFFVDNILGI-UHFFFAOYSA-N,?,124.0,103500
103502,925-78-0,925-78-0,CCCCCCC(=O)CC,3-Nonanone,3-Nonanone,nonan-3-one,22463,DTXSID1061289,CCCCCCC(=O)CC,"InChI=1S/C9H18O/c1-3-5-6-7-8-9(10)4-2/h3-8H2,1-2H3",IYTXKIXETAELAV-UHFFFAOYSA-N,?,190.0,103502
103503,926-02-3,926-02-3,CC(C)(C)OC=C,"Propane, 2-(ethenyloxy)-2-methyl-","Propane, 2-(ethenyloxy)-2-methyl-",2-ethenoxy-2-methylpropane,22464,DTXSID0061290,CC(C)(C)OC=C,"InChI=1S/C6H12O/c1-5-7-6(2,3)4/h5H,1H2,2-4H3",PGYJSURPYAAOMM-UHFFFAOYSA-N,?,75.0,103503
103504,926-56-7,926-56-7,CC(C)=CC=C,"4-METHYL-1,3-PENTADIENE","1,3-Pentadiene, 4-methyl-","4-Methylpenta-1,3-diene",22465,DTXSID5061291,CC(C)=CC=C,"InChI=1S/C6H10/c1-4-5-6(2)3/h4-5H,1H2,2-3H3",CJSBUWDGPXGFGA-UHFFFAOYSA-N,?,76.5,103504
103506,926-63-6,926-63-6,CCCN(C)C,Dimethyl propylamine,"N,N-Dimethylpropylamine","N,N-dimethylpropan-1-amine",22467,DTXSID8074813,CCCN(C)C,"InChI=1S/C5H13N/c1-4-5-6(2)3/h4-5H2,1-3H3",ZUHZZVMEUAUWHY-UHFFFAOYSA-N,?,66.0,103506
103507,926-64-7,926-64-7,CN(C)CC#N,"Acetonitrile, (dimethylamino)",Dimethylaminoacetonitrile,2-dimethylaminoacetonitrile,22468,DTXSID0073241,CN(C)CC#N,"InChI=1S/C4H8N2/c1-6(2)4-3-5/h4H2,1-2H3",PLXBWEPPAAQASG-UHFFFAOYSA-N,?,137.5,103507