ChemID,source_casrn,CAS,SMILES,NAME,preferred_name,iupac,MPID,dsstox_substance_id,Canonical_QSARr,InChI_Code_QSARr,InChI Key_QSARr,Salt_Solvent,Salt_Solvent_ID,MP,ID
109900,125225-28-7,125225-28-7,CC(C)C1CCC(Cc2ccc(Cl)cc2)C1(O)C[n]1c[n]c[n]1,IPCONAZOLE,Ipconazole,"2-(4-chlorobenzyl)-5-(propan-2-yl)-1-(1H-1,2,4-triazol-1-ylmethyl)cyclopentanol",36181,DTXSID7034674,CC(C)C1CCC(Cc2ccc(Cl)cc2)C1(O)C[n]1c[n]c[n]1,"InChI=1S/C18H24ClN3O/c1-13(2)17-8-5-15(9-14-3-6-16(19)7-4-14)18(17,23)10-22-12-20-11-21-22/h3-4,6-7,11-13,15,17,23H,5,8-10H2,1-2H3",QTYCMDBMOLSEAM-UHFFFAOYSA-N,?,,89.0,109900
109910,128639-02-1,128639-02-1,CC1=NN(c2cc(CC(Cl)C(=O)OCC)c(Cl)cc2F)C(=O)N1C(F)F,Carfentrazone-ethyl,Carfentrazone-ethyl,"ethyl 2-chloro-3-{2-chloro-5-[4-(difluoromethyl)-3-methyl-5-oxo-4,5-dihydro-1H-1,2,4-triazol-1-yl]-4-fluorophenyl}propanoate",36185,DTXSID4032532,CC1=NN(c2cc(CC(Cl)C(=O)OCC)c(Cl)cc2F)C(=O)N1C(F)F,"InChI=1S/C15H14Cl2F3N3O3/c1-3-26-13(24)10(17)4-8-5-12(11(18)6-9(8)16)23-15(25)22(14(19)20)7(2)21-23/h5-6,10,14H,3-4H2,1-2H3",MLKCGVHIFJBRCD-UHFFFAOYSA-N,?,,-22.1,109910
109932,131341-86-1,131341-86-1,N#Cc1c[nH]cc1-c1cccc2OC(F)(F)Oc21,FLUDIOXONIL,Fludioxonil,"4-(2,2-difluoro-1,3-benzodioxol-4-yl)-1H-pyrrole-3-carbonitrile",36189,DTXSID2032398,N#Cc1c[nH]cc1-c1cccc2OC(F)(F)Oc21,"InChI=1S/C12H6F2N2O2/c13-12(14)17-10-3-1-2-8(11(10)18-12)9-6-16-5-7(9)4-15/h1-3,5-6,16H",MUJOIMFVNIBMKC-UHFFFAOYSA-N,?,,199.8,109932
109937,133220-30-1,133220-30-1,CCC1(CC2(CO2)c2cc(Cl)ccc2)C(=O)c2ccccc2C1=O,INDANOFAN,Indanofan,"2-{[2-(3-chlorophenyl)oxiran-2-yl]methyl}-2-ethyl-1H-indene-1,3(2H)-dione",36193,DTXSID1057957,CCC1(CC2(CO2)c2cc(Cl)ccc2)C(=O)c2ccccc2C1=O,"InChI=1S/C20H17ClO3/c1-2-19(17(22)15-8-3-4-9-16(15)18(19)23)11-20(12-24-20)13-6-5-7-14(21)10-13/h3-10H,2,11-12H2,1H3",PMAAYIYCDXGUAP-UHFFFAOYSA-N,?,,61.0,109937
109941,135590-91-9,135590-91-9,CC1(CC(=NN1c1ccc(Cl)cc1Cl)C(=O)OCC)C(=O)OCC,Mefenpyr-diethyl,Mefenpyr-diethyl,"diethyl 1-(2,4-dichlorophenyl)-5-methyl-4,5-dihydro-1H-pyrazole-3,5-dicarboxylate",36197,DTXSID6037564,CC1(CC(=NN1c1ccc(Cl)cc1Cl)C(=O)OCC)C(=O)OCC,"InChI=1S/C16H18Cl2N2O4/c1-4-23-14(21)12-9-16(3,15(22)24-5-2)20(19-12)13-7-6-10(17)8-11(13)18/h6-8H,4-5,9H2,1-3H3",OPGCOAPTHCZZIW-UHFFFAOYSA-N,?,,51.0,109941
109950,135832-46-1,NOCAS_871497,NS(=O)(=O)c1ccc(CCCO)cc1,"BENZENESULFONAMIDE, 4-(3-HYDROXYPROPYL)-",,,36201,DTXSID80871497,NS(=O)(=O)c1ccc(CCCO)cc1,"InChI=1S/C9H13NO3S/c10-14(12,13)9-5-3-8(4-6-9)2-1-7-11/h3-6,11H,1-2,7H2,(H2,10,12,13)",NSNHWGDFYDLMBS-UHFFFAOYSA-N,?,,95.5,109950
109957,136191-64-5,136191-64-5,CC(=NOC)c1cccc(Oc2[n]c(cc([n]2)OC)OC)c1C(=O)OC,Pyriminobac-methyl,Pyriminobac-methyl,"methyl 2-[(4,6-dimethoxy-2-pyrimidinyl)oxy]-6-(N-methoxyethanimidoyl)benzoate",36205,DTXSID5058307,CC(=NOC)c1cccc(Oc2[n]c(cc([n]2)OC)OC)c1C(=O)OC,"InChI=1S/C17H19N3O6/c1-10(20-25-5)11-7-6-8-12(15(11)16(21)24-4)26-17-18-13(22-2)9-14(19-17)23-3/h6-9H,1-5H3/b20-10+",USSIUIGPBLPCDF-KEBDBYFISA-N,?,,107.0,109957
109964,136944-43-9,136944-43-9,CCc1cc2cc(O)c(O)cc2cc1,"2,3-NAPHTHALENEDIOL, 6-ETHYL-",PUBCHEM_15086363,C12H12O2,36209,DTXSID90568003,CCc1cc2cc(O)c(O)cc2cc1,"InChI=1S/C12H12O2/c1-2-8-3-4-9-6-11(13)12(14)7-10(9)5-8/h3-7,13-14H,2H2,1H3",NDJJECGAJBVPJR-UHFFFAOYSA-N,?,,149.0,109964
109969,138261-41-3,138261-41-3,[O-][N+](=O)/N=C1\NCCN\1Cc1ccc(Cl)[n]c1,IMIDACLOPRID,Imidacloprid,(2E)-1-[(6-chloropyridin-3-yl)methyl]-N-nitroimidazolidin-2-imine,36213,DTXSID5032442,[O-][N+](=O)N=C1NCCN1Cc1ccc(Cl)[n]c1,"InChI=1S/C9H10ClN5O2/c10-8-2-1-7(5-12-8)6-14-4-3-11-9(14)13-15(16)17/h1-2,5H,3-4,6H2,(H,11,13)",YWTYJOPNNQFBPC-UHFFFAOYSA-N,?,,144.0,109969
109975,142312-59-2,NOCAS_871502,O=C(Nc1cc2[n][n]([n]c2cc1)C1CCCCC1)c1ccccc1,"Benzamide, N-(2-cyclohexyl-2H-benzotriazol-5-yl)",,,36217,DTXSID70871502,O=C(Nc1cc2[n][n]([n]c2cc1)C1CCCCC1)c1ccccc1,"InChI=1S/C19H20N4O/c24-19(14-7-3-1-4-8-14)20-15-11-12-17-18(13-15)22-23(21-17)16-9-5-2-6-10-16/h1,3-4,7-8,11-13,16H,2,5-6,9-10H2,(H,20,24)",BJIXMMZSFUZLBX-UHFFFAOYSA-N,?,,212.0,109975
109990,144171-61-9,144171-61-9,COC(=O)N(c1ccc(cc1)OC(F)(F)F)C(=O)N1COC2(Cc3cc(Cl)ccc3C2=N1)C(=O)OC,DPX-JW062,(+-)-Indoxacarb,"methyl 7-chloro-2-{(methoxycarbonyl)[4-(trifluoromethoxy)phenyl]carbamoyl}-2,5-dihydroindeno[1,2-e][1,3,4]oxadiazine-4a(3H)-carboxylate",36221,DTXSID3040801,COC(=O)N(c1ccc(cc1)OC(F)(F)F)C(=O)N1COC2(Cc3cc(Cl)ccc3C2=N1)C(=O)OC,"InChI=1S/C22H17ClF3N3O7/c1-33-18(30)21-10-12-9-13(23)3-8-16(12)17(21)27-28(11-35-21)19(31)29(20(32)34-2)14-4-6-15(7-5-14)36-22(24,25)26/h3-9H,10-11H2,1-2H3",VBCVPMMZEGZULK-UHFFFAOYSA-N,?,,140.5,109990
109994,145348-22-7,145348-22-7,COC(=O)C1(CC1)S(=O)(=O)c1ccc(Cl)cc1,Methyl (1-(4-chloro)phenylsulfonyl) cyclopropane,"Cyclopropanecarboxylic acid, 1-((4-chlorophenyl)sulfonyl)-, methyl ester",methyl 1-(4-chlorophenyl)sulfonylcyclopropane-1-carboxylate,36225,DTXSID60162991,COC(=O)C1(CC1)S(=O)(=O)c1ccc(Cl)cc1,"InChI=1S/C11H11ClO4S/c1-16-10(13)11(6-7-11)17(14,15)9-4-2-8(12)3-5-9/h2-5H,6-7H2,1H3",MKKNYRRAGXWBDZ-UHFFFAOYSA-N,?,,115.5,109994
109998,145348-26-1,145348-26-1,COC(=O)C1(CC1)S(=O)(=O)c1ccc(cc1)[N+]([O-])=O,Methyl (1-(4-nitro)phenylsulfonyl) cyclopropane,"Cyclopropanecarboxylic acid, 1-((4-nitrophenyl)sulfonyl)-, methyl ester",methyl 1-(4-nitrophenyl)sulfonylcyclopropane-1-carboxylate,36229,DTXSID00162995,COC(=O)C1(CC1)S(=O)(=O)c1ccc(cc1)[N+]([O-])=O,"InChI=1S/C11H11NO6S/c1-18-10(13)11(6-7-11)19(16,17)9-4-2-8(3-5-9)12(14)15/h2-5H,6-7H2,1H3",JPEDHHGXVGENMN-UHFFFAOYSA-N,?,,127.0,109998
110005,153197-14-9,153197-14-9,CC1OCN(C(=O)C=1c1ccccc1)C(C)(C)c1cc(Cl)cc(Cl)c1,OXAZICLOMEFONE,Oxaziclomefone,"3-[2-(3,5-dichlorophenyl)propan-2-yl]-6-methyl-5-phenyl-2,3-dihydro-4H-1,3-oxazin-4-one",36234,DTXSID3057983,CC1OCN(C(=O)C=1c1ccccc1)C(C)(C)c1cc(Cl)cc(Cl)c1,"InChI=1S/C20H19Cl2NO2/c1-13-18(14-7-5-4-6-8-14)19(24)23(12-25-13)20(2,3)15-9-16(21)11-17(22)10-15/h4-11H,12H2,1-3H3",FCOHEOSCARXMMS-UHFFFAOYSA-N,?,,150.0,110005
110009,160790-04-5,160790-04-5,CC(C)OC(=O)C1(CCCCC1)S(=O)(=O)c1ccc(cc1)[N+]([O-])=O,Isopropyl (1-(4-nitro)phenylsulfonyl) cyclohexan,"Cyclohexanecarboxylic acid, 1-((4-nitrophenyl)sulfonyl)-, 1-methylethyl ester",propan-2-yl 1-(4-nitrophenyl)sulfonylcyclohexane-1-carboxylate,36238,DTXSID20166990,CC(C)OC(=O)C1(CCCCC1)S(=O)(=O)c1ccc(cc1)[N+]([O-])=O,"InChI=1S/C16H21NO6S/c1-12(2)23-15(18)16(10-4-3-5-11-16)24(21,22)14-8-6-13(7-9-14)17(19)20/h6-9,12H,3-5,10-11H2,1-2H3",DUNHJGJBRJZBJD-UHFFFAOYSA-N,?,,110.5,110009
110013,160790-08-9,160790-08-9,COC(=O)C1(CCCCC1)S(=O)(=O)c1ccc(Br)cc1,Me (1-(4-bromo)phenylsulfonyl) cyclohexane carbo,"Cyclohexanecarboxylic acid, 1-((4-bromophenyl)sulfonyl)-, methyl ester",methyl 1-(4-bromophenyl)sulfonylcyclohexane-1-carboxylate,36242,DTXSID60166994,COC(=O)C1(CCCCC1)S(=O)(=O)c1ccc(Br)cc1,"InChI=1S/C14H17BrO4S/c1-19-13(16)14(9-3-2-4-10-14)20(17,18)12-7-5-11(15)6-8-12/h5-8H,2-4,9-10H2,1H3",FRWFRRPXOYMNKY-UHFFFAOYSA-N,?,,111.5,110013
110018,160790-17-0,160790-17-0,COC(=O)C1(CCC1)S(=O)(=O)c1ccccc1,Methyl (1-phenylsulfonyl) cyclobutane carboxylat,"Cyclobutanecarboxylic acid, 1-(phenylsulfonyl)-, methyl ester",methyl 1-phenylsulfonylcyclobutane-1-carboxylate,36246,DTXSID20167003,COC(=O)C1(CCC1)S(=O)(=O)c1ccccc1,"InChI=1S/C12H14O4S/c1-16-11(13)12(8-5-9-12)17(14,15)10-6-3-2-4-7-10/h2-4,6-7H,5,8-9H2,1H3",ACFDLHBDXXPXBY-UHFFFAOYSA-N,?,,107.5,110018
110022,162320-67-4,162320-67-4,Fc1cccc(F)c1-c1[n][n]c([n][n]1)-c1ccccc1Cl,SZI-121,Diflovidazin,"3-(2-chlorophenyl)-6-(2,6-difluorophenyl)-1,2,4,5-tetrazine",36250,DTXSID7057993,Fc1cccc(F)c1-c1[n][n]c([n][n]1)-c1ccccc1Cl,InChI=1S/C14H7ClF2N4/c15-9-5-2-1-4-8(9)13-18-20-14(21-19-13)12-10(16)6-3-7-11(12)17/h1-7H,SWBHWUYHHJCADA-UHFFFAOYSA-N,?,,188.0,110022
110026,169590-42-5,169590-42-5,Cc1ccc(cc1)-c1cc([n][n]1-c1ccc(cc1)S(N)(=O)=O)C(F)(F)F,Celecoxib,Celecoxib,4-[5-(4-methylphenyl)-3-(trifluoromethyl)-1H-pyrazol-1-yl]benzenesulfonamide,36254,DTXSID0022777,Cc1ccc(cc1)-c1cc([n][n]1-c1ccc(cc1)S(N)(=O)=O)C(F)(F)F,"InChI=1S/C17H14F3N3O2S/c1-11-2-4-12(5-3-11)15-10-16(17(18,19)20)22-23(15)13-6-8-14(9-7-13)26(21,24)25/h2-10H,1H3,(H2,21,24,25)",RZEKVGVHFLEQIL-UHFFFAOYSA-N,?,,158.0,110026
110032,SRC000-17-2,NOCAS_871513,CCCCCCN(C)C(=O)COC(=O)c1ccccc1,"Acetamide, 2-(benzoyloxy)-N-hexyl-N-methyl-",,,36256,DTXSID80871513,CCCCCCN(C)C(=O)COC(=O)c1ccccc1,"InChI=1S/C16H23NO3/c1-3-4-5-9-12-17(2)15(18)13-20-16(19)14-10-7-6-8-11-14/h6-8,10-11H,3-5,9,12-13H2,1-2H3",YWPYUSOODWSSRX-UHFFFAOYSA-N,?,,100.5,110032
100002,50-01-1,50-01-1,Cl.NC(N)=N,Guanidine hydrochloride,Guanidine monohydrochloride,,27422,DTXSID7058757,NC(N)=N,"InChI=1S/CH5N3/c2-1(3)4/h(H5,2,3,4)",ZRALSGWEFCBTJO-UHFFFAOYSA-N,Cl,18179,182.3,100002
100003,50-02-2|378-44-9,50-02-2|378-44-9,C[C@@H]1C[C@H]2[C@@H]3CCC4=CC(=O)C=C[C@]4(C)[C@@]3(F)[C@@H](O)C[C@]2(C)[C@@]1(O)C(=O)CO,"DEXAMETHASONE, BETAMETHASONE",Dexamethasone,"(11beta,16alpha)-9-fluoro-11,17,21-trihydroxy-16-methylpregna-1,4-diene-3,20-dione",27423|30304,DTXSID3020384|DTXSID3022667,CC1CC2C3CCC4=CC(=O)C=CC4(C)C3(F)C(O)CC2(C)C1(O)C(=O)CO,"InChI=1S/C22H29FO5/c1-12-8-16-15-5-4-13-9-14(25)6-7-19(13,2)21(15,23)17(26)10-20(16,3)22(12,28)18(27)11-24/h6-7,9,12,15-17,24,26,28H,4-5,8,10-11H2,1-3H3",UREBDLICKHMUKA-UHFFFAOYSA-N,?,,247.5,100003
100004,50-04-4,50-04-4,CC(=O)OCC(=O)[C@@]1(O)CC[C@H]2[C@@H]3CCC4=CC(=O)CC[C@]4(C)[C@H]3C(=O)C[C@]12C,CORTISONE ACETATE,Cortisone acetate,"17-hydroxy-3,11,20-trioxopregn-4-en-21-yl acetate",27424,DTXSID0022858,CC(=O)OCC(=O)C1(O)CCC2C3CCC4=CC(=O)CCC4(C)C3C(=O)CC12C,"InChI=1S/C23H30O6/c1-13(24)29-12-19(27)23(28)9-7-17-16-5-4-14-10-15(25)6-8-21(14,2)20(16)18(26)11-22(17,23)3/h10,16-17,20,28H,4-9,11-12H2,1-3H3",ITRJWOMZKQRYTA-UHFFFAOYSA-N,?,,222.0,100004
100006,50-10-2,50-10-2,[Br-].C[N+](CCOC(=O)C(O)(C1CCCCC1)c1ccccc1)(CC)CC,Oxyphenonium bromide,Oxyphenonium bromide,"2-{[cyclohexyl(hydroxy)phenylacetyl]oxy}-N,N-diethyl-N-methylethanaminium bromide",27426,DTXSID4045632,C[N+](CCOC(=O)C(O)(C1CCCCC1)c1ccccc1)(CC)CC,"InChI=1S/C21H34NO3/c1-4-22(3,5-2)16-17-25-20(23)21(24,18-12-8-6-9-13-18)19-14-10-7-11-15-19/h6,8-9,12-13,19,24H,4-5,7,10-11,14-17H2,1-3H3/q+1",GFRUPHOKLBPHTQ-UHFFFAOYSA-N,[Br-],1731,191.5,100006
100007,50-11-3,50-11-3,CN1C(=O)NC(=O)C(CC)(CC)C1=O,METHARBITAL,Metharbital,"5,5-diethyl-1-methylpyrimidine-2,4,6(1H,3H,5H)-trione",27427,DTXSID6023280,CN1C(=O)NC(=O)C(CC)(CC)C1=O,"InChI=1S/C9H14N2O3/c1-4-9(5-2)6(12)10-8(14)11(3)7(9)13/h4-5H2,1-3H3,(H,10,12,14)",FWJKNZONDWOGMI-UHFFFAOYSA-N,?,,150.5,100007
100008,50-12-4,50-12-4,CCC1(NC(=O)N(C)C1=O)c1ccccc1,MEPHENYTOIN,Mephenytoin,"5-ethyl-3-methyl-5-phenylimidazolidine-2,4-dione",27428,DTXSID9023257,CCC1(NC(=O)N(C)C1=O)c1ccccc1,"InChI=1S/C12H14N2O2/c1-3-12(9-7-5-4-6-8-9)10(15)14(2)11(16)13-12/h4-8H,3H2,1-2H3,(H,13,16)",GMHKMTDVRCWUDX-UHFFFAOYSA-N,?,,136.5,100008
100011,50-18-0,50-18-0,O=P1(NCCCO1)N(CCCl)CCCl,CYCLOPHOSPHAMIDE,Cyclophosphamide,"N,N-bis(2-chloroethyl)-1,3,2-oxazaphosphinan-2-amine 2-oxide",27430,DTXSID5020364,O=P1(NCCCO1)N(CCCl)CCCl,"InChI=1S/C7H15Cl2N2O2P/c8-2-5-11(6-3-9)14(12)10-4-1-7-13-14/h1-7H2,(H,10,12)",CMSMOCZEIVJLDB-UHFFFAOYSA-N,?,,51.5,100011
100012,50-19-1,NOCAS_861571,CCC(O)(COC(N)=O)c1ccccc1,HYDROXYPHENAMATE,,,27431,DTXSID40861571,CCC(O)(COC(N)=O)c1ccccc1,"InChI=1S/C11H15NO3/c1-2-11(14,8-15-10(12)13)9-6-4-3-5-7-9/h3-7,14H,2,8H2,1H3,(H2,12,13)",WAFIYOULDIWAKR-UHFFFAOYSA-N,?,,55.0,100012
100013,50-21-5|79-33-4|10326-41-7,50-21-5|79-33-4|10326-41-7,CC(O)C(O)=O,"LACTIC ACID, L-LACTIC ACID, D-LACTIC ACID",Lactic acid,2-hydroxypropanoic acid,27432|28043|34781,DTXSID7023192|DTXSID6034689|DTXSID0047030,CC(O)C(O)=O,"InChI=1S/C3H6O3/c1-2(4)3(5)6/h2,4H,1H3,(H,5,6)",JVTAAEKCZFNVCJ-UHFFFAOYSA-N,?,,40.8666666667,100013
100015,50-23-7,50-23-7,C[C@]12CCC(=O)C=C1CC[C@@H]1[C@@H]2[C@@H](O)C[C@@]2(C)[C@H]1CC[C@]2(O)C(=O)CO,HYDROCORTISONE,Hydrocortisone,"(11beta)-11,17,21-trihydroxypregn-4-ene-3,20-dione",27434,DTXSID7020714,CC12CCC(=O)C=C1CCC1C2C(O)CC2(C)C1CCC2(O)C(=O)CO,"InChI=1S/C21H30O5/c1-19-7-5-13(23)9-12(19)3-4-14-15-6-8-21(26,17(25)11-22)20(15,2)10-16(24)18(14)19/h9,14-16,18,22,24,26H,3-8,10-11H2,1-2H3",JYGXADMDTFJGBT-UHFFFAOYSA-N,?,,218.5,100015
100016,50-27-1,50-27-1,C[C@]12CC[C@H]3[C@@H](CCc4cc(O)ccc43)[C@@H]1C[C@@H](O)[C@@H]2O,ESTRIOL,Estriol,"(16alpha,17beta)-estra-1,3,5(10)-triene-3,16,17-triol",27435,DTXSID9022366,CC12CCC3C(CCc4cc(O)ccc43)C1CC(O)C2O,"InChI=1S/C18H24O3/c1-18-7-6-13-12-5-3-11(19)8-10(12)2-4-14(13)15(18)9-16(20)17(18)21/h3,5,8,13-17,19-21H,2,4,6-7,9H2,1H3",PROQIPRRNZUXQM-UHFFFAOYSA-N,?,,282.0,100016
100017,50-28-2|57-91-0,50-28-2|57-91-0,C[C@]12CC[C@H]3[C@@H](CCc4cc(O)ccc43)[C@@H]1CC[C@@H]2O,"ESTRADIOL, a-Estradiol",17beta-Estradiol,"(17beta)-estra-1(10),2,4-triene-3,17-diol",27436|27592,DTXSID0020573|DTXSID8022377,CC12CCC3C(CCc4cc(O)ccc43)C1CCC2O,"InChI=1S/C18H24O2/c1-18-9-8-14-13-5-3-12(19)10-11(13)2-4-15(14)16(18)6-7-17(18)20/h3,5,10,14-17,19-20H,2,4,6-9H2,1H3",VOXZDWNPVJITMN-UHFFFAOYSA-N,?,,200.0,100017
100019,50-30-6,50-30-6,OC(=O)c1c(Cl)cccc1Cl,"2,6-DICHLOROBENZOIC ACID","2,6-Dichlorobenzoic acid","2,6-dichlorobenzoic acid",27438,DTXSID0024979,OC(=O)c1c(Cl)cccc1Cl,"InChI=1S/C7H4Cl2O2/c8-4-2-1-3-5(9)6(4)7(10)11/h1-3H,(H,10,11)",MRUDNSFOFOQZDA-UHFFFAOYSA-N,?,,144.0,100019
100020,50-31-7,50-31-7,OC(=O)c1c(Cl)c(Cl)ccc1Cl,"2,3,6-TRICHLOROBENZOIC ACID","2,3,6-Trichlorobenzoic acid","2,3,6-trichlorobenzoic acid",27439,DTXSID6040296,OC(=O)c1c(Cl)c(Cl)ccc1Cl,"InChI=1S/C7H3Cl3O2/c8-3-1-2-4(9)6(10)5(3)7(11)12/h1-2H,(H,11,12)",XZIDTOHMJBOSOX-UHFFFAOYSA-N,?,,124.5,100020
100021,50-32-8,50-32-8,c1c2ccccc2c2ccc3cccc4ccc1c2c34,BENZO(A)PYRENE,Benzo(a)pyrene,benzo[pqr]tetraphene,27440,DTXSID2020139,c1c2ccccc2c2ccc3cccc4ccc1c2c34,InChI=1S/C20H12/c1-2-7-17-15(4-1)12-16-9-8-13-5-3-6-14-10-11-18(17)20(16)19(13)14/h1-12H,FMMWHPNWAFZXNH-UHFFFAOYSA-N,?,,176.5,100021
100023,50-34-0,50-34-0,[Br-].C[N+](CCOC(=O)C1c2ccccc2Oc2ccccc21)(C(C)C)C(C)C,Propantheline bromide,Propantheline bromide,N-methyl-N-(propan-2-yl)-N-{2-[(9H-xanthen-9-ylcarbonyl)oxy]ethyl}propan-2-aminium bromide,27442,DTXSID2023519,C[N+](CCOC(=O)C1c2ccccc2Oc2ccccc21)(C(C)C)C(C)C,"InChI=1S/C23H30NO3/c1-16(2)24(5,17(3)4)14-15-26-23(25)22-18-10-6-8-12-20(18)27-21-13-9-7-11-19(21)22/h6-13,16-17,22H,14-15H2,1-5H3/q+1",VVWYOYDLCMFIEM-UHFFFAOYSA-N,[Br-],1731,159.5,100023
100024,50-35-1,50-35-1,O=C1CCC(C(=O)N1)N1C(=O)c2ccccc2C1=O,THALIDOMIDE,Thalidomide,"2-(2,6-dioxopiperidin-3-yl)-1H-isoindole-1,3(2H)-dione",27443,DTXSID9022524,O=C1CCC(C(=O)N1)N1C(=O)c2ccccc2C1=O,"InChI=1S/C13H10N2O4/c16-10-6-5-9(11(17)14-10)15-12(18)7-3-1-2-4-8(7)13(15)19/h1-4,9H,5-6H2,(H,14,16,17)",UEJJHQNACJXSKW-UHFFFAOYSA-N,?,,270.0,100024
100025,50-36-2,50-36-2,COC(=O)[C@@H]1C2CCC(C[C@@H]1OC(=O)c1ccccc1)[N@@]2C,COCAINE,Cocaine,"methyl (1R,2R,3S,5S)-3-(benzoyloxy)-8-methyl-8-azabicyclo[3.2.1]octane-2-carboxylate",27444,DTXSID2038443,COC(=O)C1C2CCC(CC1OC(=O)c1ccccc1)N2C,"InChI=1S/C17H21NO4/c1-18-12-8-9-13(18)15(17(20)21-2)14(10-12)22-16(19)11-6-4-3-5-7-11/h3-7,12-15H,8-10H2,1-2H3",ZPUCINDJVBIVPJ-UHFFFAOYSA-N,?,,98.0,100025
100027,50-39-5,NOCAS_861572,CN1c2[n]c[n](C)c2C(=O)N(CC(C)O)C1=O,Protheobromine,,,27446,DTXSID00861572,CN1c2[n]c[n](C)c2C(=O)N(CC(C)O)C1=O,"InChI=1S/C10H14N4O3/c1-6(15)4-14-9(16)7-8(11-5-12(7)2)13(3)10(14)17/h5-6,15H,4H2,1-3H3",MXRGZXBFSKSZPH-UHFFFAOYSA-N,?,,141.0,100027
100028,50-42-0,64-95-9,CCN(CCOC(=O)C(c1ccccc1)c1ccccc1)CC,Adiphenine,Adiphenine,2-(diethylamino)ethyl diphenylacetate,27447,DTXSID0022561,CCN(CCOC(=O)C(c1ccccc1)c1ccccc1)CC,"InChI=1S/C20H25NO2/c1-3-21(4-2)15-16-23-20(22)19(17-11-7-5-8-12-17)18-13-9-6-10-14-18/h5-14,19H,3-4,15-16H2,1-2H3",JGOAIQNSOGZNBX-UHFFFAOYSA-N,?,,113.5,100028
100029,50-43-1,50-43-1,OC(=O)c1c(Cl)cc(Cl)cc1Cl,"2,4,6-Trichlorobenzoic acid","2,4,6-Trichlorobenzoic acid","2,4,6-TRICHLOROBENZOIC ACID",27448,DTXSID9075329,OC(=O)c1c(Cl)cc(Cl)cc1Cl,"InChI=1S/C7H3Cl3O2/c8-3-1-4(9)6(7(11)12)5(10)2-3/h1-2H,(H,11,12)",RAFFVQBMVYYTQS-UHFFFAOYSA-N,?,,162.0,100029
100031,50-48-6,50-48-6,CN(C)CCC=C1c2ccccc2CCc2ccccc21,AMITRYPTYLINE,Amitriptyline,"3-(10,11-dihydro-5H-dibenzo[a,d][7]annulen-5-ylidene)-N,N-dimethylpropan-1-amine",27450,DTXSID7022594,CN(C)CCC=C1c2ccccc2CCc2ccccc21,"InChI=1S/C20H23N/c1-21(2)15-7-12-20-18-10-5-3-8-16(18)13-14-17-9-4-6-11-19(17)20/h3-6,8-12H,7,13-15H2,1-2H3",KRMDCWKBEZIMAB-UHFFFAOYSA-N,?,,196.5,100031
100032,50-49-7,50-49-7,CN(C)CCCN1c2ccccc2CCc2ccccc12,IMIPRAMINE,Imipramine,"3-(10,11-dihydro-5H-dibenzo[b,f]azepin-5-yl)-N,N-dimethylpropan-1-amine",27451,DTXSID1043881,CN(C)CCCN1c2ccccc2CCc2ccccc12,"InChI=1S/C19H24N2/c1-20(2)14-7-15-21-18-10-5-3-8-16(18)12-13-17-9-4-6-11-19(17)21/h3-6,8-11H,7,12-15H2,1-2H3",BCGWQEUPMDMJNV-UHFFFAOYSA-N,?,,174.5,100032
100033,50-50-0,50-50-0,C[C@]12CC[C@H]3[C@@H](CCc4cc(ccc43)OC(=O)c3ccccc3)[C@@H]1CC[C@@H]2O,Estradiol benzoate,Estradiol benzoate,"(17beta)-17-hydroxyestra-1(10),2,4-trien-3-yl benzoate",27452,DTXSID9022998,CC12CCC3C(CCc4cc(ccc43)OC(=O)c3ccccc3)C1CCC2O,"InChI=1S/C25H28O3/c1-25-14-13-20-19-10-8-18(28-24(27)16-5-3-2-4-6-16)15-17(19)7-9-21(20)22(25)11-12-23(25)26/h2-6,8,10,15,20-23,26H,7,9,11-14H2,1H3",UYIFTLBWAOGQBI-UHFFFAOYSA-N,?,,196.0,100033
100035,50-55-5,50-55-5,COC(=O)[C@@H]1[C@@H](OC)[C@@H](C[C@@H]2CN3CCc4c([nH]c5cc(ccc45)OC)[C@H]3C[C@@H]21)OC(=O)c1cc(OC)c(OC)c(c1)OC,RESERPINE,Reserpine,"methyl (3beta,16beta,17alpha,18beta,20alpha)-11,17-dimethoxy-18-[(3,4,5-trimethoxybenzoyl)oxy]yohimban-16-carboxylate",27454,DTXSID7021237,COC(=O)C1C(OC)C(CC2CN3CCc4c([nH]c5cc(ccc45)OC)C3CC21)OC(=O)c1cc(OC)c(OC)c(c1)OC,"InChI=1S/C33H40N2O9/c1-38-19-7-8-20-21-9-10-35-16-18-13-27(44-32(36)17-11-25(39-2)30(41-4)26(12-17)40-3)31(42-5)28(33(37)43-6)22(18)15-24(35)29(21)34-23(20)14-19/h7-8,11-12,14,18,22,24,27-28,31,34H,9-10,13,15-16H2,1-6H3",QEVHRUUCFGRFIF-UHFFFAOYSA-N,?,,264.5,100035
100036,50-60-2,50-60-2,Cc1ccc(cc1)N(CC1NCCN=1)c1cc(O)ccc1,Phentolamine,Phentolamine,"3-[(4,5-dihydro-1H-imidazol-2-ylmethyl)(4-methylphenyl)amino]phenol",27455,DTXSID4023462,Cc1ccc(cc1)N(CC1NCCN=1)c1cc(O)ccc1,"InChI=1S/C17H19N3O/c1-13-5-7-14(8-6-13)20(12-17-18-9-10-19-17)15-3-2-4-16(21)11-15/h2-8,11,21H,9-10,12H2,1H3,(H,18,19)",MRBDMNSDAVCSSF-UHFFFAOYSA-N,?,,174.5,100036
100038,50-65-7,50-65-7,[O-][N+](=O)c1cc(Cl)c(cc1)NC(=O)c1cc(Cl)ccc1O,NICLOSAMIDE,Niclosamide,5-chloro-N-(2-chloro-4-nitrophenyl)-2-hydroxybenzamide,27456,DTXSID7040362,[O-][N+](=O)c1cc(Cl)c(cc1)NC(=O)c1cc(Cl)ccc1O,"InChI=1S/C13H8Cl2N2O4/c14-7-1-4-12(18)9(5-7)13(19)16-11-3-2-8(17(20)21)6-10(11)15/h1-6,18H,(H,16,19)",RJMUSRYZPJIFPJ-UHFFFAOYSA-N,?,,230.0,100038
100042,50-73-7,50-73-7,OC(=O)c1cc(Cl)cc(Cl)c1Cl,"Benzoic acid, 2,3,5-trichloro-","2,3,5-Trichlorobenzoic acid","2,3,5-Trichlorobenzoic acid",27458,DTXSID8074285,OC(=O)c1cc(Cl)cc(Cl)c1Cl,"InChI=1S/C7H3Cl3O2/c8-3-1-4(7(11)12)6(10)5(9)2-3/h1-2H,(H,11,12)",CGFDSIZRJWMQPP-UHFFFAOYSA-N,?,,166.5,100042
100043,50-74-8,NOCAS_870383,OC(=O)c1cc(Cl)c(Cl)c(Cl)c1Cl,"Benzoic acid, 2,3,4,5-tetrachloro-",,,27459,DTXSID20870383,OC(=O)c1cc(Cl)c(Cl)c(Cl)c1Cl,"InChI=1S/C7H2Cl4O2/c8-3-1-2(7(12)13)4(9)6(11)5(3)10/h1H,(H,12,13)",FUXMTEKFGUWSNC-UHFFFAOYSA-N,?,,194.5,100043
100044,50-78-2,50-78-2,CC(=O)Oc1ccccc1C(O)=O,ACETYLSALICYLIC ACID,Aspirin,2-(acetyloxy)benzoic acid,27460,DTXSID5020108,CC(=O)Oc1ccccc1C(O)=O,"InChI=1S/C9H8O4/c1-6(10)13-8-5-3-2-4-7(8)9(11)12/h2-5H,1H3,(H,11,12)",BSYNRYMUTXBXSQ-UHFFFAOYSA-N,?,,135.0,100044
100046,50-82-8,50-82-8,OC(=O)c1cc(Cl)c(Cl)cc1Cl,"2,4,5-TRICHLOROBENZOIC ACID","2,4,5-Trichlorobenzoic acid","2,4,5-TRICHLOROBENZOIC ACID",27462,DTXSID8075332,OC(=O)c1cc(Cl)c(Cl)cc1Cl,"InChI=1S/C7H3Cl3O2/c8-4-2-6(10)5(9)1-3(4)7(11)12/h1-2H,(H,11,12)",PTFNNDHASFGWFI-UHFFFAOYSA-N,?,,166.5,100046
100047,50-84-0,50-84-0,OC(=O)c1ccc(Cl)cc1Cl,"2,4-DICHLOROBENZOIC ACID","2,4-Dichlorobenzoic acid","2,4-dichlorobenzoic acid",27463,DTXSID0024977,OC(=O)c1ccc(Cl)cc1Cl,"InChI=1S/C7H4Cl2O2/c8-4-1-2-5(7(10)11)6(9)3-4/h1-3H,(H,10,11)",ATCRIUVQKHMXSH-UHFFFAOYSA-N,?,,164.2,100047
100048,50-85-1,50-85-1,Cc1cc(O)c(cc1)C(O)=O,4-METHYLSALICYLIC ACID,m-Cresotic acid,2-Hydroxy-4-methylbenzoic acid,27464,DTXSID30198166,Cc1cc(O)c(cc1)C(O)=O,"InChI=1S/C8H8O3/c1-5-2-3-6(8(10)11)7(9)4-5/h2-4,9H,1H3,(H,10,11)",NJESAXZANHETJV-UHFFFAOYSA-N,?,,177.0,100048