ChemID,source_casrn,CAS,SMILES,NAME,preferred_name,iupac,MPID,dsstox_substance_id,Canonical_QSARr,InChI_Code_QSARr,InChI Key_QSARr,Salt_Solvent,Salt_Solvent_ID,MP,ID
102726,144-49-0,144-49-0,OC(=O)CF,FLUOROACETIC ACID,Fluoroacetic acid,fluoroacetic acid,29931,DTXSID0041981,OC(=O)CF,"InChI=1S/C2H3FO2/c3-1-2(4)5/h1H2,(H,4,5)",QEWYKACRFQMRMB-UHFFFAOYSA-N,?,,35.2,102726
102730,144-83-2,144-83-2,Nc1ccc(cc1)S(=O)(=O)Nc1cccc[n]1,SULFAPYRIDINE,Sulfapyridine,4-amino-N-(pyridin-2-yl)benzenesulfonamide,29935,DTXSID3026067,Nc1ccc(cc1)S(=O)(=O)Nc1cccc[n]1,"InChI=1S/C11H11N3O2S/c12-9-4-6-10(7-5-9)17(15,16)14-11-3-1-2-8-13-11/h1-8H,12H2,(H,13,14)",GECHUMIMRBOMGK-UHFFFAOYSA-N,?,,192.0,102730
102734,145-39-1,145-39-1,Cc1c(C)c(c(c(c1C)[N+]([O-])=O)C(C)(C)C)[N+]([O-])=O,Musk tibetine,"1-tert-Butyl-3,4,5-trimethyl-2,6-dinitrobenzene","1-tert-butyl-3,4,5-trimethyl-2,6-dinitrobenzene",29939,DTXSID9044582,Cc1c(C)c(c(c(c1C)[N+]([O-])=O)C(C)(C)C)[N+]([O-])=O,"InChI=1S/C13H18N2O4/c1-7-8(2)11(14(16)17)10(13(4,5)6)12(9(7)3)15(18)19/h1-6H3",MINYPECWDZURGR-UHFFFAOYSA-N,?,,135.5,102734
102741,147-27-3,147-27-3,Cc1cc2cc(OC)c(cc2c(Cc2cc(OC)c(cc2)OCC)[n]1)OC,Dimoxyline,Dimoxyline,"1-[(4-ethoxy-3-methoxyphenyl)methyl]-6,7-dimethoxy-3-methylisoquinoline",29944,DTXSID10163559,Cc1cc2cc(OC)c(cc2c(Cc2cc(OC)c(cc2)OCC)[n]1)OC,"InChI=1S/C22H25NO4/c1-6-27-19-8-7-15(11-20(19)24-3)10-18-17-13-22(26-5)21(25-4)12-16(17)9-14(2)23-18/h7-9,11-13H,6,10H2,1-5H3",NFABMCCMPXXBFY-UHFFFAOYSA-N,?,,124.5,102741
102749,148-01-6,148-01-6,Cc1c(cc(cc1C(N)=O)[N+]([O-])=O)[N+]([O-])=O,"BENZAMIDE, 2-METHYL-3,5-DINITRO-",Zoalene,"2-methyl-3,5-dinitrobenzamide",29950,DTXSID6042521,Cc1c(cc(cc1C(N)=O)[N+]([O-])=O)[N+]([O-])=O,"InChI=1S/C8H7N3O5/c1-4-6(8(9)12)2-5(10(13)14)3-7(4)11(15)16/h2-3H,1H3,(H2,9,12)",ZEFNOZRLAWVAQF-UHFFFAOYSA-N,?,,177.0,102749
102753,148-79-8,148-79-8,c1[n]c(c[s]1)-c1[nH]c2ccccc2[n]1,THIABENDAZOLE,Thiabendazole,"2-(1,3-thiazol-4-yl)-1H-benzimidazole",29954,DTXSID0021337,c1[n]c(c[s]1)-c1[nH]c2ccccc2[n]1,"InChI=1S/C10H7N3S/c1-2-4-8-7(3-1)12-10(13-8)9-5-14-6-11-9/h1-6H,(H,12,13)",WJCNZQLZVWNLKY-UHFFFAOYSA-N,?,,300.0,102753
102758,149-30-4,149-30-4,Sc1[n]c2ccccc2[s]1,2-MERCAPTOBENZOTHIAZOLE,2-Mercaptobenzothiazole,"1,3-benzothiazole-2-thiol",29958,DTXSID1020807,Sc1[n]c2ccccc2[s]1,"InChI=1S/C7H5NS2/c9-7-8-5-3-1-2-4-6(5)10-7/h1-4H,(H,8,9)",YXIWHUQXZSMYRE-UHFFFAOYSA-N,?,,181.0,102758
102763,150-46-9,150-46-9,CCOB(OCC)OCC,TRIETHYL BORATE,Triethyl borate,C6H15BO3,29961,DTXSID2041674,CCOB(OCC)OCC,"InChI=1S/C6H15BO3/c1-4-8-7(9-5-2)10-6-3/h4-6H2,1-3H3",AJSTXXYNEIHPMD-UHFFFAOYSA-N,?,,-84.8,102763
102767,150-68-5,150-68-5,CN(C)C(=O)Nc1ccc(Cl)cc1,MONURON,Monuron,"3-(4-chlorophenyl)-1,1-dimethylurea",29965,DTXSID0020311,CN(C)C(=O)Nc1ccc(Cl)cc1,"InChI=1S/C9H11ClN2O/c1-12(2)9(13)11-8-5-3-7(10)4-6-8/h3-6H,1-2H3,(H,11,13)",BMLIZLVNXIYGCK-UHFFFAOYSA-N,?,,170.5,102767
102772,151-10-0,151-10-0,COc1cc(ccc1)OC,M-DIMETHOXYBENZENE,"1,3-Dimethoxybenzene","1,3-dimethoxybenzene",29969,DTXSID2047060,COc1cc(ccc1)OC,"InChI=1S/C8H10O2/c1-9-7-4-3-5-8(6-7)10-2/h3-6H,1-2H3",DPZNOMCNRMUKPS-UHFFFAOYSA-N,?,,-52.0,102772
102776,151-67-7,151-67-7,FC(F)(F)C(Cl)Br,HALOTHANE,Halothane,"2-bromo-2-chloro-1,1,1-trifluoroethane",29973,DTXSID4025371,FC(F)(F)C(Cl)Br,"InChI=1S/C2HBrClF3/c3-1(4)2(5,6)7/h1H",BCQZXOMGPXTTIC-UHFFFAOYSA-N,?,,-118.0,102776
102780,152-47-6,152-47-6,COc1[n]cc[n]c1NS(=O)(=O)c1ccc(N)cc1,SULFALENE,Sulfalene,4-amino-N-(3-methoxypyrazin-2-yl)benzenesulfonamide,29977,DTXSID2046179,COc1[n]cc[n]c1NS(=O)(=O)c1ccc(N)cc1,"InChI=1S/C11H12N4O3S/c1-18-11-10(13-6-7-14-11)15-19(16,17)9-4-2-8(12)3-5-9/h2-7H,12H2,1H3,(H,13,15)",KXRZBTAEDBELFD-UHFFFAOYSA-N,?,,176.0,102780
102784,152-84-1,72-48-0,Oc1c(ccc2c1C(=O)c1ccccc1C2=O)O[C@@H]1O[C@H](CO[C@@H]2OC[C@@H](O)[C@H](O)[C@H]2O)[C@@H](O)[C@H](O)[C@H]1O,Ruberythric Acid,,,29981,DTXSID5045960,Oc1c(ccc2c1C(=O)c1ccccc1C2=O)OC1OC(COC2OCC(O)C(O)C2O)C(O)C(O)C1O,"InChI=1S/C25H26O13/c26-12-7-35-24(22(33)18(12)29)36-8-14-20(31)21(32)23(34)25(38-14)37-13-6-5-11-15(19(13)30)17(28)10-4-2-1-3-9(10)16(11)27/h1-6,12,14,18,20-26,29-34H,7-8H2",GCGGSVAWTYHZBI-UHFFFAOYSA-N,?,,260.0,102784
102789,154-17-6,1949-89-9,OC[C@@H](O)[C@H](O)[C@H](O)CC=O,"D-arabino-Hexose, 2-deoxy-","D-lyxo-Hexose, 2-deoxy-","(3R,4R,5R)-3,4,5,6-tetrahydroxyhexanal",29985,DTXSID9075163,OCC(O)C(O)C(O)CC=O,"InChI=1S/C6H12O5/c7-2-1-4(9)6(11)5(10)3-8/h2,4-6,8-11H,1,3H2",VRYALKFFQXWPIH-UHFFFAOYSA-N,?,,146.5,102789
102795,156-28-5,156-28-5,Cl.NCCc1ccccc1,"Benzeneethanamine, hydrochloride","Benzeneethanamine, hydrochloride",,29988,DTXSID0059744,NCCc1ccccc1,"InChI=1S/C8H11N/c9-7-6-8-4-2-1-3-5-8/h1-5H,6-7,9H2",BHHGXPLMPWCGHP-UHFFFAOYSA-N,Cl,18179.0,218.5,102795
102799,156-56-9,156-56-9,C=C1C[C@@H]1C[C@H](N)C(O)=O,Hypoglycine A,,,29992,DTXSID70878975,C=C1CC1CC(N)C(O)=O,"InChI=1S/C7H11NO2/c1-4-2-5(4)3-6(8)7(9)10/h5-6H,1-3,8H2,(H,9,10)",OOJZCXFXPZGUBJ-UHFFFAOYSA-N,?,,282.0,102799
102804,157-40-4,157-40-4,C1CC21CC2,SPIROPENTANE,Spiropentane,,29996,DTXSID10166181,C1CC21CC2,InChI=1S/C5H8/c1-2-5(1)3-4-5/h1-4H2,OGNAOIGAPPSUMG-UHFFFAOYSA-N,?,,-134.6,102804
102808,191-24-2,191-24-2,c1cc2ccc3cccc4c3c2c2c3c4cccc3ccc21,BENZO(GHI)PERYLENE,"Benzo(g,h,i)perylene",benzo[ghi]perylene,30000,DTXSID5023908,c1cc2ccc3cccc4c3c2c2c3c4cccc3ccc21,InChI=1S/C22H12/c1-3-13-7-9-15-11-12-16-10-8-14-4-2-6-18-17(5-1)19(13)21(15)22(16)20(14)18/h1-12H,GYFAGKUZYNFMBN-UHFFFAOYSA-N,?,,278.0,102808
102812,193-39-5,193-39-5,c1c2c3c4c5c1cccc5ccc4ccc3-c1ccccc1-2,"INDENO(1,2,3-CD)PYRENE","Indeno(1,2,3-cd)pyrene","indeno[1,2,3-cd]pyrene",30004,DTXSID8024153,c1c2c3c4c5c1cccc5ccc4ccc3-c1ccccc1-2,InChI=1S/C22H12/c1-2-7-17-16(6-1)18-11-10-14-9-8-13-4-3-5-15-12-19(17)22(18)21(14)20(13)15/h1-12H,SXQBHARYMNFBPS-UHFFFAOYSA-N,?,,163.6,102812
102816,203-64-5,203-64-5,C1c2cccc3ccc4cccc1c4c32,"4,5-METHYLENEPHENANTHRENE","4-H-Cyclopenta(d,e,f)phenanthrene",4H-cyclopenta[def]phenanthrene,30008,DTXSID1024887,C1c2cccc3ccc4cccc1c4c32,"InChI=1S/C15H10/c1-3-10-7-8-11-4-2-6-13-9-12(5-1)14(10)15(11)13/h1-8H,9H2",RKZDZWJDQTZDLD-UHFFFAOYSA-N,?,,114.0,102816
102820,206-44-0,206-44-0,c1ccc2c3c(cccc31)-c1ccccc1-2,FLUORANTHENE,Fluoranthene,fluoranthene,30012,DTXSID3024104,c1ccc2c3c(cccc31)-c1ccccc1-2,InChI=1S/C16H10/c1-2-8-13-12(7-1)14-9-3-5-11-6-4-10-15(13)16(11)14/h1-10H,GVEPBJHOBDJJJI-UHFFFAOYSA-N,?,,107.8,102820
102825,215-58-7,215-58-7,c1c2c3ccccc3c3ccccc3c2cc2ccccc21,"1,2,3,4-DIBENZANTHRACENE","Dibenz[a,c]anthracene",benzo[f]tetraphene,30016,DTXSID9049245,c1c2c3ccccc3c3ccccc3c2cc2ccccc21,InChI=1S/C22H14/c1-2-8-16-14-22-20-12-6-4-10-18(20)17-9-3-5-11-19(17)21(22)13-15(16)7-1/h1-14H,RAASUWZPTOJQAY-UHFFFAOYSA-N,?,,206.0,102825
102829,224-42-0,224-42-0,c1c2c(ccc3ccccc32)[n]c2ccc3ccccc3c21,"DIBENZ[a,j]ACRIDINE","Dibenz[a,j]acridine",,30020,DTXSID4059758,c1c2c(ccc3ccccc32)[n]c2ccc3ccccc3c21,InChI=1S/C21H13N/c1-3-7-16-14(5-1)9-11-20-18(16)13-19-17-8-4-2-6-15(17)10-12-21(19)22-20/h1-13H,ANUCHZVCBDOPOX-UHFFFAOYSA-N,?,,216.0,102829
102834,230-17-1,230-17-1,c1cccc2c3ccccc3[n][n]c21,"5,6-DIAZAPHENANTHRENE",Benzo[c]cinnoline,Benzo[c]cinnoline,30024,DTXSID8074289,c1cccc2c3ccccc3[n][n]c21,InChI=1S/C12H8N2/c1-3-7-11-9(5-1)10-6-2-4-8-12(10)14-13-11/h1-8H,SWJXWSAKHXBQSY-UHFFFAOYSA-N,?,,158.0,102834
102839,243-17-4,243-17-4,C1c2ccccc2-c2cc3ccccc3cc21,11H-BENZO(B)FLUORENE,"2,3-Benzofluorene",11H-benzo[b]fluorene,30028,DTXSID1022477,C1c2ccccc2-c2cc3ccccc3cc21,"InChI=1S/C17H12/c1-2-6-13-11-17-15(9-12(13)5-1)10-14-7-3-4-8-16(14)17/h1-9,11H,10H2",HAPOJKSPCGLOOD-UHFFFAOYSA-N,?,,212.0,102839
102843,253-82-7,253-82-7,c1[n]c[n]c2ccccc21,QUINAZOLINE,Quinazoline,Quinazoline,30032,DTXSID7075214,c1[n]c[n]c2ccccc21,InChI=1S/C8H6N2/c1-2-4-8-7(3-1)5-9-6-10-8/h1-6H,JWVCLYRUEFBMGU-UHFFFAOYSA-N,?,,48.0,102843
102848,261-31-4,261-31-4,C1c2ccccc2Sc2ccccc21,Thioxanthene,Thioxanthine,9H-thioxanthene,30036,DTXSID20180732,C1c2ccccc2Sc2ccccc21,"InChI=1S/C13H10S/c1-3-7-12-10(5-1)9-11-6-2-4-8-13(11)14-12/h1-8H,9H2",PQJUJGAVDBINPI-UHFFFAOYSA-N,?,,128.5,102848
102852,272-16-2,272-16-2,c1[n][s]c2ccccc21,"1,2-BENZISOTHIAZOLE","1,2-Benzisothiazole","1,2-benzothiazole",30040,DTXSID7074290,c1[n][s]c2ccccc21,InChI=1S/C7H5NS/c1-2-4-7-6(3-1)5-8-9-7/h1-5H,CSNIZNHTOVFARY-UHFFFAOYSA-N,?,,38.0,102852
102857,274-40-8,274-40-8,c1cc[n]2ccccc21,INDOLIZINE,Indolizine,INDOLIZINE,30044,DTXSID50181818,c1cc[n]2ccccc21,InChI=1S/C8H7N/c1-2-6-9-7-3-5-8(9)4-1/h1-7H,HOBCFUWDNJPFHB-UHFFFAOYSA-N,?,,75.0,102857
102861,280-65-9,280-65-9,C1C2CCCC1CCC2,BICYCLO[3.3.1]NONANE,Bicyclo(3.3.1)nonane,bicyclo[3.3.1]nonane,30048,DTXSID30182282,C1C2CCCC1CCC2,"InChI=1S/C9H16/c1-3-8-5-2-6-9(4-1)7-8/h8-9H,1-7H2",WNTGVOIBBXFMLR-UHFFFAOYSA-N,?,,145.5,102861
102865,287-27-4,287-27-4,C1CCS1,THIACYCLOBUTANE,Thietane,Thietane,30052,DTXSID7059773,C1CCS1,InChI=1S/C3H6S/c1-2-4-3-1/h1-3H2,XSROQCDVUIHRSI-UHFFFAOYSA-N,?,,-73.2,102865
102869,288-36-8,NOCAS_870495,c1c[n][nH][n]1,"2H-1,2,3-TRIAZOLE",,,30056,DTXSID30870495,c1c[n][nH][n]1,"InChI=1S/C2H3N3/c1-2-4-5-3-1/h1-2H,(H,3,4,5)",QWENRTYMTSOGBR-UHFFFAOYSA-N,?,,23.0,102869
102873,290-37-9,290-37-9,c1c[n]cc[n]1,PYRAZINE,Pyrazine,pyrazine,30060,DTXSID8049410,c1c[n]cc[n]1,InChI=1S/C4H4N2/c1-2-6-4-3-5-1/h1-4H,KYQCOXFCLRTKLS-UHFFFAOYSA-N,?,,55.0,102873
102877,292-46-6,292-46-6,C1SSSCSS1,"1,2,3,5,6-PENTATHIEPANE",Lenthionine,"1,2,3,5,6-Pentathiepane",30064,DTXSID20183460,C1SSSCSS1,InChI=1S/C2H4S5/c1-3-4-2-6-7-5-1/h1-2H2,DZKOKXZNCDGVRY-UHFFFAOYSA-N,?,,60.5,102877
102881,294-93-9,294-93-9,C1COCCOCCOCCO1,"1,4,7,10-TETRAOXACYCLODODECANE","1,4,7,10-Tetraoxacyclododecane","1,4,7,10-TETRAOXACYCLODODECANE",30068,DTXSID6059780,C1COCCOCCOCCO1,InChI=1S/C8H16O4/c1-2-10-5-6-12-8-7-11-4-3-9-1/h1-8H2,XQQZRZQVBFHBHL-UHFFFAOYSA-N,?,,16.0,102881
102885,297-97-2,297-97-2,CCOP(=S)(Oc1c[n]cc[n]1)OCC,THIONAZIN,Thionazin,"O,O-diethyl O-pyrazin-2-yl phosphorothioate",30072,DTXSID8042470,CCOP(=S)(Oc1c[n]cc[n]1)OCC,"InChI=1S/C8H13N2O3PS/c1-3-11-14(15,12-4-2)13-8-7-9-5-6-10-8/h5-7H,3-4H2,1-2H3",IRVDMKJLOCGUBJ-UHFFFAOYSA-N,?,,-1.7,102885
102889,298-04-4,298-04-4,CCSCCSP(=S)(OCC)OCC,DISULFOTON,Disulfoton,"O,O-diethyl S-[2-(ethylsulfanyl)ethyl] phosphorodithioate",30076,DTXSID0022018,CCSCCSP(=S)(OCC)OCC,"InChI=1S/C8H19O2PS3/c1-4-9-11(12,10-5-2)14-8-7-13-6-3/h4-8H2,1-3H3",DOFZAZXDOSGAJZ-UHFFFAOYSA-N,?,,-25.0,102889
102893,298-18-0|1464-53-5,298-18-0|1464-53-5,C1O[C@@H]1[C@@H]1CO1,"1,2:3,4-DIEPOXYBUTANE DL, DIEPOXYBUTANE",dl-Diepoxybutane,"(2S,2'S)-2,2'-bioxirane",30079|33015,DTXSID9020455|DTXSID0041307,C1OC1C1CO1,"InChI=1S/C4H6O2/c1-3(5-1)4-2-6-4/h3-4H,1-2H2",ZFIVKAOQEXOYFY-UHFFFAOYSA-N,?,,3.5,102893
102897,299-11-6,299-11-6,COS([O-])(=O)=O.C[n+]1c2ccccc2[n]c2ccccc12,N-Methylphenazonium Methosulfate,"Phenazinium, 5-methyl-, methyl sulfate",5-methylphenazin-5-ium; methyl sulfate,30083,DTXSID1059783,C[n+]1c2ccccc2[n]c2ccccc12,"InChI=1S/C13H11N2/c1-15-12-8-4-2-6-10(12)14-11-7-3-5-9-13(11)15/h2-9H,1H3/q+1",KBZALDXXIMXRBJ-UHFFFAOYSA-N,S(OC)(=O)(=O)[O-],75.0,157.0,102897
102905,300-38-9,50299-42-8,N[C@H](Cc1cc(Br)c(O)c(Br)c1)C(O)=O,"L-Tyrosine, 3,5-dibromo-","3,5-Dibromo-D-tyrosine",C9H9Br2NO3,30087,DTXSID90350900,NC(Cc1cc(Br)c(O)c(Br)c1)C(O)=O,"InChI=1S/C9H9Br2NO3/c10-5-1-4(2-6(11)8(5)13)3-7(12)9(14)15/h1-2,7,13H,3,12H2,(H,14,15)",COESHZUDRKCEPA-UHFFFAOYSA-N,?,,245.0,102905
102911,300-85-6|625-71-8,625-72-9,C[C@@H](O)CC(O)=O,"b-Hydroxybutyric Acid, 3-Hydroxybutyric acid",D-3-Hydroxybutyric acid,(3R)-3-hydroxybutanoic acid,30091|31943,DTXSID3041829,CC(O)CC(O)=O,"InChI=1S/C4H8O3/c1-3(5)2-4(6)7/h3,5H,2H2,1H3,(H,6,7)",WHBMMWSBFZVSSR-UHFFFAOYSA-N,?,,47.5,102911
102917,302-27-2,302-27-2,CC(=O)O[C@]12[C@@H](O)[C@H](OC)[C@@]3(O)C[C@H]([C@@H]1[C@H]3OC(=O)c1ccccc1)[C@@]13C4[C@@H]2[C@H](OC)[C@@H]1[C@@](C[N@@]4CC)(COC)[C@H](O)C[C@@H]3OC,ACONITINE,Aconitine,"(1a,3a,6a,11b,14a,15a,16b)-8-(acetyloxy)-20-ethyl-3,13,15-trihydroxy-1,6,16-trimethoxy-4-(methoxymethyl)aconitan-14-yl benzoate",30096,DTXSID4046319,CC(=O)OC12C(O)C(OC)C3(O)CC(C1C3OC(=O)c1ccccc1)C13C4C2C(OC)C1C(CN4CC)(COC)C(O)CC3OC,"InChI=1S/C34H47NO11/c1-7-35-15-31(16-41-3)20(37)13-21(42-4)33-19-14-32(40)28(45-30(39)18-11-9-8-10-12-18)22(19)34(46-17(2)36,27(38)29(32)44-6)23(26(33)35)24(43-5)25(31)33/h8-12,19-29,37-38,40H,7,13-16H2,1-6H3",XFSBVAOIAHNAPC-UHFFFAOYSA-N,?,,204.0,102917
102921,302-66-9,NOCAS_871630,CCC(C)(C#C)OC(N)=O,MEPARFYNOL CARBAMATE,,,30100,DTXSID40871630,CCC(C)(C#C)OC(N)=O,"InChI=1S/C7H11NO2/c1-4-7(3,5-2)10-6(8)9/h1H,5H2,2-3H3,(H2,8,9)",GXCDLJXPZVCHBX-UHFFFAOYSA-N,?,,55.8,102921
102925,303-04-8,303-04-8,FC(F)(F)C(Cl)=C(Cl)C(F)(F)F,"2-BUTENE, 2,3-DICHLORO-1,1,1,4,4,4-HEXAFLUORO-","2-Butene, 2,3-dichloro-1,1,1,4,4,4-hexafluoro-",,30104,DTXSID5073161,FC(F)(F)C(Cl)=C(Cl)C(F)(F)F,"InChI=1S/C4Cl2F6/c5-1(3(7,8)9)2(6)4(10,11)12/b2-1+",XDIDQEGAKCWQQP-OWOJBTEDSA-N,?,,-67.3,102925
102934,304-84-7,304-84-7,COc1cc(ccc1O)C(=O)N(CC)CC,"BENZAMIDE, N,N-DIETHYL-4-HYDROXY-3-METHOXY-",Ethamivan,"N,N-diethyl-4-hydroxy-3-methoxybenzamide",30112,DTXSID3023007,COc1cc(ccc1O)C(=O)N(CC)CC,"InChI=1S/C12H17NO3/c1-4-13(5-2)12(15)9-6-7-10(14)11(8-9)16-3/h6-8,14H,4-5H2,1-3H3",BQJODPIMMWWMFC-UHFFFAOYSA-N,?,,95.0,102934
102939,305-84-0,305-84-0,NCCC(=O)N[C@@H](Cc1c[nH]c[n]1)C(O)=O,"L-Histidine, N-.beta.-alanyl-",,,30116,DTXSID80879594,NCCC(=O)NC(Cc1c[nH]c[n]1)C(O)=O,"InChI=1S/C9H14N4O3/c10-2-1-8(14)13-7(9(15)16)3-6-4-11-5-12-6/h4-5,7H,1-3,10H2,(H,11,12)(H,13,14)(H,15,16)",CQOVPNPJLQNMDC-UHFFFAOYSA-N,?,,260.0,102939
102943,306-19-4,306-19-4,CC(C)(C)C(=O)NNCc1ccccc1,Pivalylbenzhydrazine,Pivhydrazine,"2,2-dimethyl-N'-(phenylmethyl)propanehydrazide",30119,DTXSID50184667,CC(C)(C)C(=O)NNCc1ccccc1,"InChI=1S/C12H18N2O/c1-12(2,3)11(15)14-13-9-10-7-5-4-6-8-10/h4-8,13H,9H2,1-3H3,(H,14,15)",FWWDFDMCZLOXQI-UHFFFAOYSA-N,?,,68.5,102943
102949,306-83-2,306-83-2,FC(F)(F)C(Cl)Cl,"1,1,1-TRIFLUORO-2,2-DICHLOROETHANE","2,2-Dichloro-1,1,1-trifluoroethane","2,2-dichloro-1,1,1-trifluoroethane",30123,DTXSID7020712,FC(F)(F)C(Cl)Cl,"InChI=1S/C2HCl2F3/c3-1(4)2(5,6)7/h1H",OHMHBGPWCHTMQE-UHFFFAOYSA-N,?,,-107.0,102949
102955,307-55-1,307-55-1,OC(=O)C(F)(F)C(F)(F)C(F)(F)C(F)(F)C(F)(F)C(F)(F)C(F)(F)C(F)(F)C(F)(F)C(F)(F)C(F)(F)F,Perfluorododecanoic acid,PFDOA,tricosafluorododecanoic acid,30127,DTXSID8031861,OC(=O)C(F)(F)C(F)(F)C(F)(F)C(F)(F)C(F)(F)C(F)(F)C(F)(F)C(F)(F)C(F)(F)C(F)(F)C(F)(F)F,"InChI=1S/C12HF23O2/c13-2(14,1(36)37)3(15,16)4(17,18)5(19,20)6(21,22)7(23,24)8(25,26)9(27,28)10(29,30)11(31,32)12(33,34)35/h(H,36,37)",CXGONMQFMIYUJR-UHFFFAOYSA-N,?,,108.0,102955
102960,311-45-5,311-45-5,CCOP(=O)(Oc1ccc(cc1)[N+]([O-])=O)OCC,PARAOXON,Paraoxon,diethyl 4-nitrophenyl phosphate,30131,DTXSID6024046,CCOP(=O)(Oc1ccc(cc1)[N+]([O-])=O)OCC,"InChI=1S/C10H14NO6P/c1-3-15-18(14,16-4-2)17-10-7-5-9(6-8-10)11(12)13/h5-8H,3-4H2,1-2H3",WYMSBXTXOHUIGT-UHFFFAOYSA-N,?,,300.0,102960
102964,313-04-2,313-04-2,CC(C)=CCC[C@@H](C)[C@H]1CC[C@H]2[C@@H]3CC=C4C[C@@H](O)CC[C@]4(C)[C@H]3CC[C@@]21C,Desmosterol,,,30135,DTXSID10878676,CC(C)=CCCC(C)C1CCC2C3CC=C4CC(O)CCC4(C)C3CCC21C,"InChI=1S/C27H44O/c1-18(2)7-6-8-19(3)23-11-12-24-22-10-9-20-17-21(28)13-15-26(20,4)25(22)14-16-27(23,24)5/h7,9,19,21-25,28H,6,8,10-17H2,1-5H3",AVSXSVCZWQODGV-UHFFFAOYSA-N,?,,121.5,102964
102968,314-42-1,314-42-1,CC1NC(=O)N(C(C)C)C(=O)C=1Br,ISOCIL,Isocil,"5-bromo-6-methyl-3-(propan-2-yl)pyrimidine-2,4(1H,3H)-dione",30139,DTXSID2042064,CC1NC(=O)N(C(C)C)C(=O)C=1Br,"InChI=1S/C8H11BrN2O2/c1-4(2)11-7(12)6(9)5(3)10-8(11)13/h4H,1-3H3,(H,10,13)",PSYBGEADHLUXCS-UHFFFAOYSA-N,?,,158.5,102968
102973,315-72-0,315-72-0,OCCN1CCN(CCCN2c3ccccc3C=Cc3ccccc23)CC1,Opipramol,Opipramol,"2-{4-[3-(5H-dibenzo[b,f]azepin-5-yl)propyl]piperazin-1-yl}ethanol",30143,DTXSID3023394,OCCN1CCN(CCCN2c3ccccc3C=Cc3ccccc23)CC1,"InChI=1S/C23H29N3O/c27-19-18-25-16-14-24(15-17-25)12-5-13-26-22-8-3-1-6-20(22)10-11-21-7-2-4-9-23(21)26/h1-4,6-11,27H,5,12-19H2",YNZFUWZUGRBMHL-UHFFFAOYSA-N,?,,100.5,102973
102983,320-72-9,320-72-9,Oc1c(Cl)cc(Cl)cc1C(O)=O,"Benzoic acid, 3,5-dichloro-2-hydroxy-","3,5-Dichlorosalicylic acid","3,5-dichloro-2-hydroxybenzoic acid",30147,DTXSID3044914,Oc1c(Cl)cc(Cl)cc1C(O)=O,"InChI=1S/C7H4Cl2O3/c8-3-1-4(7(11)12)6(10)5(9)2-3/h1-2,10H,(H,11,12)",CNJGWCQEGROXEE-UHFFFAOYSA-N,?,,220.5,102983
102987,321-55-1,321-55-1,CC1=C(Cl)C(=O)Oc2cc(ccc21)OP(=O)(OCCCl)OCCCl,Haloxon,Haloxon,bis(2-chloroethyl) 3-chloro-4-methyl-2-oxo-2H-chromen-7-yl phosphate,30151,DTXSID5046221,CC1=C(Cl)C(=O)Oc2cc(ccc21)OP(=O)(OCCCl)OCCCl,"InChI=1S/C14H14Cl3O6P/c1-9-11-3-2-10(8-12(11)22-14(18)13(9)17)23-24(19,20-6-4-15)21-7-5-16/h2-3,8H,4-7H2,1H3",KULDXINYXFTXMO-UHFFFAOYSA-N,?,,91.0,102987
102993,322-97-4,322-97-4,O=C1C=CNc2cc(ccc21)C(F)(F)F,4-HYDROXY-7-TRIFLUOROMEQUINOLINE,7-(Trifluorophenyl)quinolin-4-ol,7-(trifluoromethyl)-1H-quinolin-4-one,30156,DTXSID10185973,O=C1C=CNc2cc(ccc21)C(F)(F)F,"InChI=1S/C10H6F3NO/c11-10(12,13)6-1-2-7-8(5-6)14-4-3-9(7)15/h1-5H,(H,14,15)",OWPLFJSQLPTCHS-UHFFFAOYSA-N,?,,267.5,102993
102997,326-91-0,326-91-0,O=C(CC(=O)c1ccc[s]1)C(F)(F)F,THENOYLTRIFLUOROMETHYLACETONE,"1,3-Butanedione, 4,4,4-trifluoro-1-(2-thienyl)-","4,4,4-trifluoro-1-thiophen-2-ylbutane-1,3-dione",30160,DTXSID1059812,O=C(CC(=O)c1ccc[s]1)C(F)(F)F,"InChI=1S/C8H5F3O2S/c9-8(10,11)7(13)4-5(12)6-2-1-3-14-6/h1-3H,4H2",TXBBUSUXYMIVOS-UHFFFAOYSA-N,?,,42.0,102997
103004,328-84-7,328-84-7,FC(F)(F)c1cc(Cl)c(Cl)cc1,"3,4-DICHLOROBENZOTRIFLUORIDE","1,2-Dichloro-4-(trifluoromethyl)benzene","1,2-dichloro-4-(trifluoromethyl)benzene",30166,DTXSID5027142,FC(F)(F)c1cc(Cl)c(Cl)cc1,"InChI=1S/C7H3Cl2F3/c8-5-2-1-4(3-6(5)9)7(10,11)12/h1-3H",XILPLWOGHPSJBK-UHFFFAOYSA-N,?,,-12.5,103004
103009,329-99-7,329-99-7,CP(=O)(F)OC1CCCCC1,Cyclohexyl methylphosphonofluoridate,,,30171,DTXSID00861875,CP(=O)(F)OC1CCCCC1,"InChI=1S/C7H14FO2P/c1-11(8,9)10-7-5-3-2-4-6-7/h7H,2-6H2,1H3",SNTRKUOVAPUGAY-UHFFFAOYSA-N,?,,-30.0,103009
103013,331-25-9,331-25-9,OC(=O)Cc1cccc(F)c1,M-FLUOROPHENYLACETIC ACID,"Benzeneacetic acid, 3-fluoro-",2-(3-fluorophenyl)acetic acid,30174,DTXSID0059821,OC(=O)Cc1cccc(F)c1,"InChI=1S/C8H7FO2/c9-7-3-1-2-6(4-7)5-8(10)11/h1-4H,5H2,(H,10,11)",YEAUYVGUXSZCFI-UHFFFAOYSA-N,?,,43.0,103013
103018,334-59-8,334-59-8,OC(=O)CCCCCCCCCF,10-Fluoro-decanoic acid,"Decanoic acid, 10-fluoro-",10-Fluorodecanoic acid,30178,DTXSID90187036,OC(=O)CCCCCCCCCF,"InChI=1S/C10H19FO2/c11-9-7-5-3-1-2-4-6-8-10(12)13/h1-9H2,(H,12,13)",LXJHQFGNWFLQTR-UHFFFAOYSA-N,?,,49.0,103018
103022,335-57-9,335-57-9,FC(F)(F)C(F)(F)C(F)(F)C(F)(F)C(F)(F)C(F)(F)C(F)(F)F,PERFLUOROHEPTANE,Perfluoroheptane,hexadecafluoroheptane,30182,DTXSID8052019,FC(F)(F)C(F)(F)C(F)(F)C(F)(F)C(F)(F)C(F)(F)C(F)(F)F,"InChI=1S/C7F16/c8-1(9,2(10,11)4(14,15)6(18,19)20)3(12,13)5(16,17)7(21,22)23",LGUZHRODIJCVOC-UHFFFAOYSA-N,?,,-78.0,103022
103026,336-59-4,NOCAS_861881,O=C(OC(=O)C(F)(F)C(F)(F)C(F)(F)F)C(F)(F)C(F)(F)C(F)(F)F,"Butanoic acid, heptafluoro-, anhydride",,,30186,DTXSID10861881,O=C(OC(=O)C(F)(F)C(F)(F)C(F)(F)F)C(F)(F)C(F)(F)C(F)(F)F,"InChI=1S/C8F14O3/c9-3(10,5(13,14)7(17,18)19)1(23)25-2(24)4(11,12)6(15,16)8(20,21)22",UFFSXJKVKBQEHC-UHFFFAOYSA-N,?,,-43.0,103026
103032,339-44-6,339-44-6,COCCOc1c[n]c(NS(=O)(=O)c2ccccc2)[n]c1,Glymidine,Glycodiazine,N-[5-(2-methoxyethoxy)pyrimidin-2-yl]benzenesulfonamide,30190,DTXSID1023108,COCCOc1c[n]c(NS(=O)(=O)c2ccccc2)[n]c1,"InChI=1S/C13H15N3O4S/c1-19-7-8-20-11-9-14-13(15-10-11)16-21(17,18)12-5-3-2-4-6-12/h2-6,9-10H,7-8H2,1H3,(H,14,15,16)",QFWPJPIVLCBXFJ-UHFFFAOYSA-N,?,,153.0,103032
103037,344-04-7,344-04-7,Fc1c(F)c(F)c(Br)c(F)c1F,BROMOPENTAFLUOROBENZENE,Bromopentafluorobenzene,"1-bromo-2,3,4,5,6-pentafluorobenzene",30194,DTXSID3047136,Fc1c(F)c(F)c(Br)c(F)c1F,InChI=1S/C6BrF5/c7-1-2(8)4(10)6(12)5(11)3(1)9,XEKTVXADUPBFOA-UHFFFAOYSA-N,?,,-31.0,103037
103041,348-51-6,348-51-6,Fc1ccccc1Cl,1-CHLORO-2-FLUOROBENZENE,o-Chlorofluorobenzene,1-Chloro-2-fluorobenzene,30198,DTXSID8059841,Fc1ccccc1Cl,InChI=1S/C6H4ClF/c7-5-3-1-2-4-6(5)8/h1-4H,ZCJAYDKWZAWMPR-UHFFFAOYSA-N,?,,-43.0,103041
103045,350-03-8,350-03-8,CC(=O)c1ccc[n]c1,3-ACETYLPYRIDINE,3-Acetylpyridine,1-(pyridin-3-yl)ethanone,30202,DTXSID7044421,CC(=O)c1ccc[n]c1,"InChI=1S/C7H7NO/c1-6(9)7-3-2-4-8-5-7/h2-5H,1H3",WEGYGNROSJDEIW-UHFFFAOYSA-N,?,,13.5,103045