ChemID,source_casrn,CAS,SMILES,NAME,preferred_name,iupac,MPID,dsstox_substance_id,Canonical_QSARr,InChI_Code_QSARr,InChI Key_QSARr,Salt_Solvent,BP,ID
102023,507-36-8,507-36-8,CCC(C)(C)Br,"Butane, 2-bromo-2-methyl-","Butane, 2-bromo-2-methyl-",2-Bromo-2-methylbutane,21059,DTXSID5060146,CCC(C)(C)Br,"InChI=1S/C5H11Br/c1-4-5(2,3)6/h4H2,1-3H3",JOUWCKCVTDSMHF-UHFFFAOYSA-N,?,108.0,102023
102028,507-63-1,507-63-1,FC(F)(F)C(F)(F)C(F)(F)C(F)(F)C(F)(F)C(F)(F)C(F)(F)C(F)(F)I,"Octane, heptadecafluoro-8-iodo-","Octane, 1,1,1,2,2,3,3,4,4,5,5,6,6,7,7,8,8-heptadecafluoro-8-iodo-","1,1,1,2,2,3,3,4,4,5,5,6,6,7,7,8,8-heptadecafluoro-8-iodooctane",21063,DTXSID0060147,FC(F)(F)C(F)(F)C(F)(F)C(F)(F)C(F)(F)C(F)(F)C(F)(F)C(F)(F)I,"InChI=1S/C8F17I/c9-1(10,3(13,14)5(17,18)7(21,22)23)2(11,12)4(15,16)6(19,20)8(24,25)26",KWXGJTSJUKTDQU-UHFFFAOYSA-N,?,160.5,102028
102032,512-56-1,512-56-1,COP(=O)(OC)OC,TRIMETHYL PHOSPHATE,Trimethyl phosphate,trimethyl phosphate,21067,DTXSID1021403,COP(=O)(OC)OC,"InChI=1S/C3H9O4P/c1-5-8(4,6-2)7-3/h1-3H3",WVLBCYQITXONBZ-UHFFFAOYSA-N,?,197.2,102032
102038,513-35-9,513-35-9,CC=C(C)C,2-METHYL-2-BUTENE,2-Methyl-2-butene,2-methylbut-2-ene,21071,DTXSID8027165,CC=C(C)C,"InChI=1S/C5H10/c1-4-5(2)3/h4H,1-3H3",BKOOMYPCSUNDGP-UHFFFAOYSA-N,?,38.5,102038
102043,513-48-4,513-48-4,CCC(C)I,2-IODOBUTANE,2-Iodobutane,C4H9I,21075,DTXSID40858729,CCC(C)I,"InChI=1S/C4H9I/c1-3-4(2)5/h4H,3H2,1-2H3",IQRUSQUYPCHEKN-UHFFFAOYSA-N,?,120.0,102043
102047,513-85-9|6982-25-8,513-85-9,CC(O)C(C)O,"2,3-BUTANEDIOL, DL-2,3-BUTANDIOL","2,3-Butanediol","butane-2,3-diol",21079|23976,DTXSID8041321,CC(O)C(C)O,"InChI=1S/C4H10O2/c1-3(5)4(2)6/h3-6H,1-2H3",OWBTYPJTUOEWEK-UHFFFAOYSA-N,?,182.25,102047
102051,515-40-2,515-40-2,CC(C)(CCl)c1ccccc1,"Benzene, (2-chloro-1,1-dimethylethyl)-",(1-Chloro-2-methylpropan-2-yl)benzene,(1-chloro-2-methylpropan-2-yl)benzene,21083,DTXSID8027167,CC(C)(CCl)c1ccccc1,"InChI=1S/C10H13Cl/c1-10(2,8-11)9-6-4-3-5-7-9/h3-7H,8H2,1-2H3",DNXXUUPUQXSUFH-UHFFFAOYSA-N,?,223.0,102051
102055,519-73-3,519-73-3,c1ccccc1C(c1ccccc1)c1ccccc1,TRIPHENYLMETHANE,"Benzene, 1,1',1''-methylidynetris-",,21087,DTXSID3060164,c1ccccc1C(c1ccccc1)c1ccccc1,"InChI=1S/C19H16/c1-4-10-16(11-5-1)19(17-12-6-2-7-13-17)18-14-8-3-9-15-18/h1-15,19H",AAAQKTZKLRYKHR-UHFFFAOYSA-N,?,359.0,102055
102060,526-75-0,526-75-0,Cc1cccc(O)c1C,"2,3-DIMETHYLPHENOL","2,3-Dimethylphenol","2,3-dimethylphenol",21091,DTXSID6025143,Cc1cccc(O)c1C,"InChI=1S/C8H10O/c1-6-4-3-5-8(9)7(6)2/h3-5,9H,1-2H3",QWBBPBRQALCEIZ-UHFFFAOYSA-N,?,216.9,102060
102064,527-55-9,527-55-9,Cc1cc(O)cc(O)c1C,"4,5-Dimethyl resorcinol",4-Methylorcinol,"4,5-dimethylbenzene-1,3-diol",21095,DTXSID40200663,Cc1cc(O)cc(O)c1C,"InChI=1S/C8H10O2/c1-5-3-7(9)4-8(10)6(5)2/h3-4,9-10H,1-2H3",RCNCKKACINZDOI-UHFFFAOYSA-N,?,284.0,102064
102068,528-29-0,528-29-0,[O-][N+](=O)c1ccccc1[N+]([O-])=O,O-DINITROBENZENE,"1,2-Dinitrobenzene","1,2-dinitrobenzene",21099,DTXSID4024066,[O-][N+](=O)c1ccccc1[N+]([O-])=O,InChI=1S/C6H4N2O4/c9-7(10)5-3-1-2-4-6(5)8(11)12/h1-4H,IZUKQUVSCNEFMJ-UHFFFAOYSA-N,?,318.0,102068
102072,529-19-1,529-19-1,Cc1ccccc1C#N,2-METHYLBENZONITRILE,2-Tolunitrile,2-methylbenzonitrile,21103,DTXSID6022050,Cc1ccccc1C#N,"InChI=1S/C8H7N/c1-7-4-2-3-5-8(7)6-9/h2-5H,1H3",NWPNXBQSRGKSJB-UHFFFAOYSA-N,?,205.0,102072
102076,529-35-1,529-35-1,Oc1cccc2CCCCc21,"1-NAPHTHALENOL, 5,6,7,8-TETRAHYDRO-","1-Naphthalenol, 5,6,7,8-tetrahydro-","5,6,7,8-TETRAHYDRONAPHTHALEN-1-OL",21107,DTXSID8074570,Oc1cccc2CCCCc21,"InChI=1S/C10H12O/c11-10-7-3-5-8-4-1-2-6-9(8)10/h3,5,7,11H,1-2,4,6H2",SCWNNOCLLOHZIG-UHFFFAOYSA-N,?,266.0,102076
102080,530-48-3,530-48-3,C=C(c1ccccc1)c1ccccc1,"1,1-DIPHENYLETHYLENE","Benzene, 1,1'-ethenylidenebis-",1-phenylethenylbenzene,21111,DTXSID5060190,C=C(c1ccccc1)c1ccccc1,"InChI=1S/C14H12/c1-12(13-8-4-2-5-9-13)14-10-6-3-7-11-14/h2-11H,1H2",ZMYIIHDQURVDRB-UHFFFAOYSA-N,?,277.0,102080
102084,532-27-4,532-27-4,O=C(CCl)c1ccccc1,2-CHLORO-1-PHENYLETHANONE,2-Chloroacetophenone,2-chloro-1-phenylethanone,21115,DTXSID9020293,O=C(CCl)c1ccccc1,"InChI=1S/C8H7ClO/c9-6-8(10)7-4-2-1-3-5-7/h1-5H,6H2",IMACFCSSMIZSPP-UHFFFAOYSA-N,?,247.0,102084
102088,533-32-4,533-32-4,CC(C)CC(=O)N(CC)CC,Isovaleryl diethylamide,Isovaleryl diethylamide,"N,N-diethyl-3-methylbutanamide",21119,DTXSID50201444,CC(C)CC(=O)N(CC)CC,"InChI=1S/C9H19NO/c1-5-10(6-2)9(11)7-8(3)4/h8H,5-7H2,1-4H3",QZMQDHNCNUGQSO-UHFFFAOYSA-N,?,211.0,102088
102092,534-07-6,534-07-6,O=C(CCl)CCl,"1,3-DICHLOROACETONE","1,3-Dichloropropanone","1,3-dichloropropan-2-one",21123,DTXSID2021577,O=C(CCl)CCl,InChI=1S/C3H4Cl2O/c4-1-3(6)2-5/h1-2H2,SUNMBRGCANLOEG-UHFFFAOYSA-N,?,173.4,102092
102096,534-52-1,534-52-1,Cc1cc(cc(c1O)[N+]([O-])=O)[N+]([O-])=O,"4,6-DINITRO-O-CRESOL","2-Methyl-4,6-dinitrophenol","2-methyl-4,6-dinitrophenol",21127,DTXSID1022053,Cc1cc(cc(c1O)[N+]([O-])=O)[N+]([O-])=O,"InChI=1S/C7H6N2O5/c1-4-2-5(8(11)12)3-6(7(4)10)9(13)14/h2-3,10H,1H3",ZXVONLUNISGICL-UHFFFAOYSA-N,?,378.0,102096
102101,535-15-9,535-15-9,CCOC(=O)C(Cl)Cl,ETHYL DICHLOROACETATE,"Acetic acid, dichloro-, ethyl ester","Ethyl 2,2-dichloroacetate",21131,DTXSID7060205,CCOC(=O)C(Cl)Cl,"InChI=1S/C4H6Cl2O2/c1-2-8-4(7)3(5)6/h3H,2H2,1H3",IWYBVQLPTCMVFO-UHFFFAOYSA-N,?,155.0,102101
102105,536-60-7,536-60-7,CC(C)c1ccc(CO)cc1,"Benzenemethanol, 4-(1-methylethyl)-",4-Isopropylbenzyl alcohol,[4-(propan-2-yl)phenyl]methanol,21135,DTXSID0021626,CC(C)c1ccc(CO)cc1,"InChI=1S/C10H14O/c1-8(2)10-5-3-9(7-11)4-6-10/h3-6,8,11H,7H2,1-2H3",OIGWAXDAPKFNCQ-UHFFFAOYSA-N,?,249.0,102105
102109,536-88-9,536-88-9,Cc1cc(CC)cc[n]1,"Pyridine, 4-ethyl-2-methyl-","Pyridine, 4-ethyl-2-methyl-",4-ethyl-2-methylpyridine,21139,DTXSID6060214,Cc1cc(CC)cc[n]1,"InChI=1S/C8H11N/c1-3-8-4-5-9-7(2)6-8/h4-6H,3H2,1-2H3",KNCHDRLWPAKSII-UHFFFAOYSA-N,?,179.0,102109
102114,538-86-3,538-86-3,COCc1ccccc1,BENZYL METHYL ETHER,Benzyl methyl ether,METHOXYMETHYLBENZENE,21143,DTXSID5060227,COCc1ccccc1,"InChI=1S/C8H10O/c1-9-7-8-5-3-2-4-6-8/h2-6H,7H2,1H3",GQKZBCPTCWJTAS-UHFFFAOYSA-N,?,170.0,102114
102119,539-52-6,539-52-6,CC(C)=CCCc1cocc1,"FURAN, 3-(4-METHYL-3-PENTENYL)-",Perillene,3-(4-methylpent-3-enyl)furan,21147,DTXSID40202167,CC(C)=CCCc1cocc1,"InChI=1S/C10H14O/c1-9(2)4-3-5-10-6-7-11-8-10/h4,6-8H,3,5H2,1-2H3",XNGKCOFXDHYSGR-UHFFFAOYSA-N,?,185.5,102119
102123,539-90-2,539-90-2,CCCC(=O)OCC(C)C,"Butanoic acid, 2-methylpropyl ester",Isobutyl butyrate,2-methylpropyl butanoate,21151,DTXSID8047557,CCCC(=O)OCC(C)C,"InChI=1S/C8H16O2/c1-4-5-8(9)10-6-7(2)3/h7H,4-6H2,1-3H3",RGFNRWTWDWVHDD-UHFFFAOYSA-N,?,156.9,102123
102127,540-18-1,540-18-1,CCCC(=O)OCCCCC,PENTYL BUTYRATE,Pentyl butyrate,pentyl butanoate,21155,DTXSID4041604,CCCC(=O)OCCCCC,"InChI=1S/C9H18O2/c1-3-5-6-8-11-9(10)7-4-2/h3-8H2,1-2H3",CFNJLPHOBMVMNS-UHFFFAOYSA-N,?,186.4,102127
102131,540-49-8|590-11-4|590-12-5,540-49-8,BrC=CBr,"1,2-Ethylene Dibromide, ETHENE, 1,2-DIBROMO-, (Z)-, ETHENE, 1,2-DIBROMO-, (E)-","1,2-Dibromoethylene",?,21159|21408|21409,DTXSID3060241,BrC=CBr,InChI=1S/C2H2Br2/c3-1-2-4/h1-2H/b2-1-,UWTUEMKLYAGTNQ-UPHRSURJSA-N,?,110.5,102131
102135,540-63-6,540-63-6,SCCS,"1,2-ETHANEDITHIOL","Ethane-1,2-dithiol","ethane-1,2-dithiol",21163,DTXSID9052187,SCCS,"InChI=1S/C2H6S2/c3-1-2-4/h3-4H,1-2H2",VYMPLPIFKRHAAC-UHFFFAOYSA-N,?,146.0,102135
102139,540-84-1,540-84-1,CC(C)CC(C)(C)C,"2,2,4-TRIMETHYLPENTANE","2,2,4-Trimethylpentane","2,2,4-trimethylpentane",21167,DTXSID7024370,CC(C)CC(C)(C)C,"InChI=1S/C8H18/c1-7(2)6-8(3,4)5/h7H,6H2,1-5H3",NHTMVDHEPJAVLT-UHFFFAOYSA-N,?,99.2,102139
102143,541-02-6,541-02-6,C[Si]1(C)O[Si](C)(C)O[Si](C)(C)O[Si](C)(C)O[Si](C)(C)O1,DECAMETHYLCYCLOPENTASILOXANE,Decamethylcyclopentasiloxane,"2,2,4,4,6,6,8,8,10,10-decamethyl-1,3,5,7,9,2,4,6,8,10-pentoxapentasilecane",21171,DTXSID1027184,C[Si]1(C)O[Si](C)(C)O[Si](C)(C)O[Si](C)(C)O[Si](C)(C)O1,"InChI=1S/C10H30O5Si5/c1-16(2)11-17(3,4)13-19(7,8)15-20(9,10)14-18(5,6)12-16/h1-10H3",XMSXQFUHVRWGNA-UHFFFAOYSA-N,?,210.0,102143
102147,541-31-1,541-31-1,CC(C)CCS,ISOAMYLTHIOL,"1-Butanethiol, 3-methyl-",3-Methylbutane-1-thiol,21175,DTXSID3060247,CC(C)CCS,"InChI=1S/C5H12S/c1-5(2)3-4-6/h5-6H,3-4H2,1-2H3",GIJGXNFNUUFEGH-UHFFFAOYSA-N,?,120.0,102147
102151,541-42-4,541-42-4,CC(C)ON=O,"Nitrous acid, 1-methylethyl ester",Isopropyl nitrite,isopropyl nitrite,21179,DTXSID3052191,CC(C)ON=O,"InChI=1S/C3H7NO2/c1-3(2)6-4-5/h3H,1-2H3",SKRDXYBATCVEMS-UHFFFAOYSA-N,?,40.0,102151
102155,541-73-1,541-73-1,Clc1cc(Cl)ccc1,3-DICHLOROBENZENE,"1,3-Dichlorobenzene","1,3-dichlorobenzene",21183,DTXSID6022056,Clc1cc(Cl)ccc1,InChI=1S/C6H4Cl2/c7-5-2-1-3-6(8)4-5/h1-4H,ZPQOPVIELGIULI-UHFFFAOYSA-N,?,173.0,102155
102159,542-08-5,542-08-5,CC(=O)CC(=O)OC(C)C,"Butanoic acid, 3-oxo-, 1-methylethyl ester","Butanoic acid, 3-oxo-, 1-methylethyl ester",propan-2-yl 3-oxobutanoate,21187,DTXSID7060253,CC(=O)CC(=O)OC(C)C,"InChI=1S/C7H12O3/c1-5(2)10-7(9)4-6(3)8/h5H,4H2,1-3H3",GVIIRWAJDFKJMJ-UHFFFAOYSA-N,?,186.0,102159
102163,542-46-1,74244-64-7,O=C1CCCCCCCC=CCCCCCCC1,"9-Cycloheptadecen-1-one, (Z)-",9-Cycloheptadecen-1-one,?,21191,DTXSID4075405,O=C1CCCCCCCC=CCCCCCCC1,"InChI=1S/C17H30O/c18-17-15-13-11-9-7-5-3-1-2-4-6-8-10-12-14-16-17/h1-2H,3-16H2/b2-1-",ZKVZSBSZTMPBQR-UPHRSURJSA-N,?,343.0,102163
102167,542-56-3,542-56-3,CC(C)CON=O,"Nitrous acid, 2-methylpropyl ester",Isobutyl nitrite,2-methylpropyl nitrite,21195,DTXSID3020750,CC(C)CON=O,"InChI=1S/C4H9NO2/c1-4(2)3-7-5-6/h4H,3H2,1-2H3",APNSGVMLAYLYCT-UHFFFAOYSA-N,?,67.0,102167
102171,542-75-6|10061-01-5|10061-02-6,542-75-6|10061-01-5|10061-02-6,ClC=CCCl,"1,3-DICHLOROPROPENE (isomer mix), 1,3-DICHLOROPROPENE, (Z), 1,3-DICHLOROPROPENE (TRANS)","1,3-Dichloropropene","1,3-dichloroprop-1-ene",21199|24072|24073,DTXSID1022057|DTXSID1032305|DTXSID2042480,ClC=CCCl,"InChI=1S/C3H4Cl2/c4-2-1-3-5/h1-2H,3H2/b2-1-",UOORRWUZONOOLO-UPHRSURJSA-N,?,109.43333333333298,102171
102175,542-90-5,542-90-5,CCSC#N,ETHYL THIOCYANATE,Ethyl thiocyanate,thiocyanatoethane,21203,DTXSID7060259,CCSC#N,"InChI=1S/C3H5NS/c1-2-5-3-4/h2H2,1H3",WFCLYEAZTHWNEH-UHFFFAOYSA-N,?,146.0,102175
102179,543-27-1,543-27-1,CC(C)COC(=O)Cl,"Carbonochloridic acid, 2-methylpropyl ester",Isobutyl chloroformate,isobutyl carbonochloridate,21207,DTXSID8052194,CC(C)COC(=O)Cl,"InChI=1S/C5H9ClO2/c1-4(2)3-8-5(6)7/h4H,3H2,1-2H3",YOETUEMZNOLGDB-UHFFFAOYSA-N,?,128.8,102179
102183,543-59-9,543-59-9,CCCCCCl,1-CHLOROPENTANE,,,21211,DTXSID40870603,CCCCCCl,"InChI=1S/C5H11Cl/c1-2-3-4-5-6/h2-5H2,1H3",SQCZQTSHSZLZIQ-UHFFFAOYSA-N,?,107.8,102183
102189,544-00-3,544-00-3,CC(C)CCNCCC(C)C,"1-Butanamine, 3-methyl-N-(3-methylbutyl)-","1-Butanamine, 3-methyl-N-(3-methylbutyl)-",3-methyl-N-(3-methylbutyl)butan-1-amine,21215,DTXSID1060263,CC(C)CCNCCC(C)C,"InChI=1S/C10H23N/c1-9(2)5-7-11-8-6-10(3)4/h9-11H,5-8H2,1-4H3",SPVVMXMTSODFPU-UHFFFAOYSA-N,?,188.0,102189
102193,544-12-7|928-96-1,544-12-7|928-96-1,CCC=CCCO,"3-HEXENE-1-OL, 3-Hexen-1-ol, (Z)-",3-Hexen-1-ol,hex-3-en-1-ol,21219|22488,DTXSID3047217|DTXSID6022137,CCC=CCCO,"InChI=1S/C6H12O/c1-2-3-4-5-6-7/h3-4,7H,2,5-6H2,1H3/b4-3+",UFLHIIWVXFIJGU-ONEGZZNKSA-N,?,156.5,102193
102197,544-40-1,544-40-1,CCCCSCCCC,Di-n-butyl sulfide,Dibutyl sulfide,1-(butylsulfanyl)butane,21223,DTXSID6022058,CCCCSCCCC,"InChI=1S/C8H18S/c1-3-5-7-9-8-6-4-2/h3-8H2,1-2H3",HTIRHQRTDBPHNZ-UHFFFAOYSA-N,?,185.0,102197
102202,545-06-2,545-06-2,N#CC(Cl)(Cl)Cl,TRICHLOROACETONITRILE,Trichloroacetonitrile,trichloroacetonitrile,21227,DTXSID0021672,N#CC(Cl)(Cl)Cl,"InChI=1S/C2Cl3N/c3-2(4,5)1-6",DRUIESSIVFYOMK-UHFFFAOYSA-N,?,85.7,102202
102206,547-64-8,547-64-8,COC(=O)C(C)O,"2-HYDROXYPROPANOIC ACID, METHYL ESTER",Methyl 2-hydroxypropanoate,methyl 2-hydroxypropanoate,21231,DTXSID0027197,COC(=O)C(C)O,"InChI=1S/C4H8O3/c1-3(5)4(6)7-2/h3,5H,1-2H3",LPEKGGXMPWTOCB-UHFFFAOYSA-N,?,145.0,102206
102211,552-45-4,552-45-4,Cc1ccccc1CCl,"Benzene, 1-(chloromethyl)-2-methyl-",1-(Chloromethyl)-2-methylbenzene,1-(chloromethyl)-2-methylbenzene,21235,DTXSID5044441,Cc1ccccc1CCl,"InChI=1S/C8H9Cl/c1-7-4-2-3-5-8(7)6-9/h2-5H,6H2,1H3",VQRBXYBBGHOGFT-UHFFFAOYSA-N,?,198.0,102211
102215,553-82-2,553-82-2,COc1ccc(Cl)cc1Cl,"Benzene, 2,4-dichloro-1-methoxy-","Benzene, 2,4-dichloro-1-methoxy-","2,4-Dichloro-1-methoxybenzene",21239,DTXSID4060286,COc1ccc(Cl)cc1Cl,"InChI=1S/C7H6Cl2O/c1-10-7-3-2-5(8)4-6(7)9/h2-4H,1H3",CICQUFBZCADHHX-UHFFFAOYSA-N,?,232.0,102215
102219,553-94-6,553-94-6,Cc1cc(Br)c(C)cc1,"Benzene, 2-bromo-1,4-dimethyl-","Benzene, 2-bromo-1,4-dimethyl-","2-Bromo-1,4-dimethylbenzene",21243,DTXSID9060289,Cc1cc(Br)c(C)cc1,"InChI=1S/C8H9Br/c1-6-3-4-7(2)8(9)5-6/h3-5H,1-2H3",QXISTPDUYKNPLU-UHFFFAOYSA-N,?,199.0,102219
102225,554-70-1,554-70-1,CCP(CC)CC,"Phosphine, triethyl-","Phosphine, triethyl-",TRIETHYLPHOSPHANE,21247,DTXSID3060293,CCP(CC)CC,"InChI=1S/C6H15P/c1-4-7(5-2)6-3/h4-6H2,1-3H3",RXJKFRMDXUJTEX-UHFFFAOYSA-N,?,129.0,102225
102229,556-56-9,556-56-9,C=CCI,"1-Propene, 3-iodo-","1-Propene, 3-iodo-",3-iodoprop-1-ene,21251,DTXSID5060302,C=CCI,"InChI=1S/C3H5I/c1-2-3-4/h2H,1,3H2",HFEHLDPGIKPNKL-UHFFFAOYSA-N,?,103.0,102229
102233,556-68-3,556-68-3,C[Si]1(C)O[Si](C)(C)O[Si](C)(C)O[Si](C)(C)O[Si](C)(C)O[Si](C)(C)O[Si](C)(C)O[Si](C)(C)O1,HEXADECAMETHYLCYCLOOCTASILOXANE,"Cyclooctasiloxane, hexadecamethyl-","2,2,4,4,6,6,8,8,10,10,12,12,14,14,16,16-hexadecamethyl-1,3,5,7,9,11,13,15-octaoxa-2,4,6,8,10,12,14,16-octasilacyclohexadecane",21255,DTXSID0060305,C[Si]1(C)O[Si](C)(C)O[Si](C)(C)O[Si](C)(C)O[Si](C)(C)O[Si](C)(C)O[Si](C)(C)O[Si](C)(C)O1,"InChI=1S/C16H48O8Si8/c1-25(2)17-26(3,4)19-28(7,8)21-30(11,12)23-32(15,16)24-31(13,14)22-29(9,10)20-27(5,6)18-25/h1-16H3",XKJMJYZFAWYREL-UHFFFAOYSA-N,?,290.0,102233
102237,557-17-5,557-17-5,CCCOC,METHYL PROPYL ETHER,"Propane, 1-methoxy-",1-Methoxypropane,21259,DTXSID0074558,CCCOC,"InChI=1S/C4H10O/c1-3-4-5-2/h3-4H2,1-2H3",VNKYTQGIUYNRMY-UHFFFAOYSA-N,?,39.1,102237
102243,557-68-6,557-68-6,BrCI,bromoiodomethane,"Methane, bromoiodo-",,21263,DTXSID50204233,BrCI,InChI=1S/CH2BrI/c2-1-3/h1H2,TUDWMIUPYRKEFN-UHFFFAOYSA-N,?,139.5,102243
102247,557-98-2,557-98-2,CC(=C)Cl,2-CHLOROPROPENE,"1-Propene, 2-chloro-",2-chloroprop-1-ene,21267,DTXSID4040262,CC(=C)Cl,"InChI=1S/C3H5Cl/c1-3(2)4/h1H2,2H3",PNLQPWWBHXMFCA-UHFFFAOYSA-N,?,22.6,102247
102251,558-25-8,558-25-8,CS(=O)(=O)F,FLUOROMETHYL SULFONE,Methanesulfonyl fluoride,METHANESULFONYL FLUORIDE,21271,DTXSID8060329,CS(=O)(=O)F,"InChI=1S/CH3FO2S/c1-5(2,3)4/h1H3",KNWQLFOXPQZGPX-UHFFFAOYSA-N,?,123.5,102251
102255,558-43-0,558-43-0,CC(C)(O)CO,"2-Methyl-propane-1,2-diol","2-Methylpropane-1,2-diol","2-Methylpropane-1,2-diol",21275,DTXSID80204382,CC(C)(O)CO,"InChI=1S/C4H10O2/c1-4(2,6)3-5/h5-6H,3H2,1-2H3",BTVWZWFKMIUSGS-UHFFFAOYSA-N,?,176.0,102255
102259,560-23-6,560-23-6,CCC(C)(C)C(C)=C,"2,3,3-TRIMETHYL-1-PENTENE","2,3,3-Trimethyl-1-pentene","2,3,3-trimethylpent-1-ene",21279,DTXSID90204570,CCC(C)(C)C(C)=C,"InChI=1S/C8H16/c1-6-8(4,5)7(2)3/h2,6H2,1,3-5H3",TUSBCMPNIOJUBX-UHFFFAOYSA-N,?,108.3,102259
102264,563-45-1,563-45-1,CC(C)C=C,3-METHYL-1-BUTENE,3-Methyl-1-butene,3-Methylbut-1-ene,21283,DTXSID7060336,CC(C)C=C,"InChI=1S/C5H10/c1-4-5(2)3/h4-5H,1H2,2-3H3",YHQXBTXEYZIYOV-UHFFFAOYSA-N,?,20.1,102264
102268,563-57-5,563-57-5,C=CC(Cl)Cl,"3,3-DICHLOROPROPENE","1-Propene, 3,3-dichloro-","3,3-dichloroprop-1-ene",21287,DTXSID4073910,C=CC(Cl)Cl,"InChI=1S/C3H4Cl2/c1-2-3(4)5/h2-3H,1H2",VRTNIWBNFSHDEB-UHFFFAOYSA-N,?,84.4,102268
102272,563-79-1,563-79-1,CC(C)=C(C)C,"2,3-DIMETHYL-2-BUTENE","2-Butene, 2,3-dimethyl-","2,3-Dimethylbut-2-ene",21291,DTXSID2060339,CC(C)=C(C)C,InChI=1S/C6H12/c1-5(2)6(3)4/h1-4H3,WGLLSSPDPJPLOR-UHFFFAOYSA-N,?,73.3,102272
102277,564-02-3,40824-48-4,CC[C@H](C)C(C)(C)C,"2,2,3-TRIMETHYLPENTANE",PUBCHEM_22810197,C8H18,21295,DTXSID80628408,CCC(C)C(C)(C)C,"InChI=1S/C8H18/c1-6-7(2)8(3,4)5/h7H,6H2,1-5H3",XTDQDBVBDLYELW-UHFFFAOYSA-N,?,110.0,102277
102282,565-60-6,NOCAS_862204,CC(CC)C(C)O,3-METHYL-2-PENTANOL,,,21299,DTXSID80862204,CC(CC)C(C)O,"InChI=1S/C6H14O/c1-4-5(2)6(3)7/h5-7H,4H2,1-3H3",ZXNBBWHRUSXUFZ-UHFFFAOYSA-N,?,134.3,102282
102287,565-69-5,565-69-5,CCC(=O)C(C)C,2-METHYL-3-PENTANONE,2-Methyl-3-pentanone,2-Methylpentan-3-one,21303,DTXSID2073196,CCC(=O)C(C)C,"InChI=1S/C6H12O/c1-4-6(7)5(2)3/h5H,4H2,1-3H3",HYTRYEXINDDXJK-UHFFFAOYSA-N,?,113.5,102287
102291,565-80-0,565-80-0,CC(C)C(=O)C(C)C,"2,4-DIMETHYL-3-PENTANONE","2,4-Dimethylpentan-3-one","2,4-dimethylpentan-3-one",21307,DTXSID3038771,CC(C)C(=O)C(C)C,"InChI=1S/C7H14O/c1-5(2)7(8)6(3)4/h5-6H,1-4H3",HXVNBWAKAOHACI-UHFFFAOYSA-N,?,125.4,102291
102295,571-61-9,571-61-9,Cc1cccc2c1cccc2C,"1,5-DIMETHYLNAPHTHALENE","1,5-Dimethylnaphthalene","1,5-Dimethylnaphthalene",21311,DTXSID0060351,Cc1cccc2c1cccc2C,"InChI=1S/C12H12/c1-9-5-3-8-12-10(2)6-4-7-11(9)12/h3-8H,1-2H3",SDDBCEWUYXVGCQ-UHFFFAOYSA-N,?,265.0,102295
102299,575-41-7,575-41-7,Cc1cc2ccccc2c(C)c1,"1,3-DIMETHYLNAPTHALENE","1,3-Dimethylnaphthalene","1,3-Dimethylnaphthalene",21315,DTXSID9060360,Cc1cc2ccccc2c(C)c1,"InChI=1S/C12H12/c1-9-7-10(2)12-6-4-3-5-11(12)8-9/h3-8H,1-2H3",QHJMFSMPSZREIF-UHFFFAOYSA-N,?,263.0,102299
102303,576-24-9,576-24-9,Oc1cccc(Cl)c1Cl,"2,3-DICHLOROPHENOL","2,3-Dichlorophenol","2,3-dichlorophenol",21319,DTXSID7025001,Oc1cccc(Cl)c1Cl,"InChI=1S/C6H4Cl2O/c7-4-2-1-3-5(9)6(4)8/h1-3,9H",UMPSXRYVXUPCOS-UHFFFAOYSA-N,?,206.0,102303
102307,577-19-5,577-19-5,[O-][N+](=O)c1ccccc1Br,O-BROMONITROBENZENE,o-Bromonitrobenzene,1-Bromo-2-nitrobenzene,21323,DTXSID9060364,[O-][N+](=O)c1ccccc1Br,InChI=1S/C6H4BrNO2/c7-5-3-1-2-4-6(5)8(9)10/h1-4H,ORPVVAKYSXQCJI-UHFFFAOYSA-N,?,258.0,102307
102311,578-57-4,578-57-4,COc1ccccc1Br,1-BROMO-2-METHOXYBENZENE,"Benzene, 1-bromo-2-methoxy-",1-Bromo-2-methoxybenzene,21327,DTXSID4060367,COc1ccccc1Br,"InChI=1S/C7H7BrO/c1-9-7-5-3-2-4-6(7)8/h2-5H,1H3",HTDQSWDEWGSAMN-UHFFFAOYSA-N,?,216.0,102311
102315,579-10-2,579-10-2,CC(=O)N(C)c1ccccc1,N-METHYLACETANILIDE,"Acetamide, N-methyl-N-phenyl-",N-Methyl-N-phenylacetamide,21331,DTXSID8060373,CC(=O)N(C)c1ccccc1,"InChI=1S/C9H11NO/c1-8(11)10(2)9-6-4-3-5-7-9/h3-7H,1-2H3",LMTGCJANOQOGPI-UHFFFAOYSA-N,?,256.0,102315
102321,581-40-8,581-40-8,Cc1cc2ccccc2cc1C,"2,3-DIMETHYLNAPHTHALENE","2,3-Dimethylnaphthalene","2,3-Dimethylnaphthalene",21336,DTXSID2060383,Cc1cc2ccccc2cc1C,"InChI=1S/C12H12/c1-9-7-11-5-3-4-6-12(11)8-10(9)2/h3-8H,1-2H3",WWGUMAYGTYQSGA-UHFFFAOYSA-N,?,268.0,102321
102325,581-50-0,581-50-0,c1[n]cccc1-c1cccc[n]1,"2,3'-BIPYRIDINE","2,3'-Bipyridine",2-pyridin-3-ylpyridine,21340,DTXSID00206823,c1[n]cccc1-c1cccc[n]1,InChI=1S/C10H8N2/c1-2-7-12-10(5-1)9-4-3-6-11-8-9/h1-8H,VEKIYFGCEAJDDT-UHFFFAOYSA-N,?,295.5,102325
102329,582-22-9,28163-64-6,C[C@@H](CN)c1ccccc1,1-Amino-2-methyl-2-phenylethane,(R)-(+)-beta-Methylphenethylamine,C9H13N,21344,DTXSID90364269,CC(CN)c1ccccc1,"InChI=1S/C9H13N/c1-8(7-10)9-5-3-2-4-6-9/h2-6,8H,7,10H2,1H3",AXORVIZLPOGIRG-UHFFFAOYSA-N,?,210.0,102329
102333,583-48-2,NOCAS_862234,CC(CC)C(C)CC,"3,4-DIMETHYLHEXANE",,,21348,DTXSID30862234,CC(CC)C(C)CC,"InChI=1S/C8H18/c1-5-7(3)8(4)6-2/h7-8H,5-6H2,1-4H3",RNTWWGNZUXGTAX-UHFFFAOYSA-N,?,117.7,102333
102337,583-58-4,583-58-4,Cc1c[n]ccc1C,"3,4-DIMETHYLPYRIDINE","3,4-Dimethylpyridine","3,4-dimethylpyridine",21352,DTXSID1052244,Cc1c[n]ccc1C,"InChI=1S/C7H9N/c1-6-3-4-8-5-7(6)2/h3-5H,1-2H3",NURQLCJSMXZBPC-UHFFFAOYSA-N,?,179.1,102337
102341,583-68-6,583-68-6,Cc1cc(Br)c(N)cc1,"Benzenamine, 2-bromo-4-methyl-","Benzenamine, 2-bromo-4-methyl-",2-Bromo-4-methylaniline,21356,DTXSID1060396,Cc1cc(Br)c(N)cc1,"InChI=1S/C7H8BrN/c1-5-2-3-7(9)6(8)4-5/h2-4H,9H2,1H3",UVRRJILIXQAAFK-UHFFFAOYSA-N,?,240.0,102341
102345,583-78-8,583-78-8,Oc1cc(Cl)ccc1Cl,"2,5-DICHLOROPHENOL","2,5-Dichlorophenol","2,5-dichlorophenol",21360,DTXSID7025003,Oc1cc(Cl)ccc1Cl,"InChI=1S/C6H4Cl2O/c7-4-1-2-5(8)6(9)3-4/h1-3,9H",RANCECPPZPIPNO-UHFFFAOYSA-N,?,211.0,102345
102349,584-94-1,NOCAS_862240,CC(C)C(C)CCC,"2,3-DIMETHYLHEXANE",,,21364,DTXSID40862240,CC(C)C(C)CCC,"InChI=1S/C8H18/c1-5-6-8(4)7(2)3/h7-8H,5-6H2,1-4H3",JXPOLSKBTUYKJB-UHFFFAOYSA-N,?,115.6,102349
102353,585-79-5,585-79-5,[O-][N+](=O)c1cccc(Br)c1,3-BROMO-1-NITROBENZENE,"Benzene, 1-bromo-3-nitro-",1-Bromo-3-nitrobenzene,21368,DTXSID3060409,[O-][N+](=O)c1cccc(Br)c1,InChI=1S/C6H4BrNO2/c7-5-2-1-3-6(4-5)8(9)10/h1-4H,FWIROFMBWVMWLB-UHFFFAOYSA-N,?,256.0,102353