ChemID,source_casrn,CAS,SMILES,NAME,preferred_name,iupac,MPID,dsstox_substance_id,Canonical_QSARr,InChI_Code_QSARr,InChI Key_QSARr,Salt_Solvent,BP,ID
101895,462-95-3,462-95-3,CCOCOCC,DIETHOXYMETHANE,Diethoxymethane,(ethoxymethoxy)ethane,20938,DTXSID6052112,CCOCOCC,"InChI=1S/C5H12O2/c1-3-6-5-7-4-2/h3-5H2,1-2H3",KLKFAASOGCDTDT-UHFFFAOYSA-N,?,88.0,101895
101896,463-04-7,463-04-7,CCCCCON=O,AMYL NITRITE,Pentyl nitrite,pentyl nitrite,20939,DTXSID3024522,CCCCCON=O,"InChI=1S/C5H11NO2/c1-2-3-4-5-8-6-7/h2-5H2,1H3",CSDTZUBPSYWZDX-UHFFFAOYSA-N,?,104.5,101896
101898,463-18-3,463-18-3,CCCCCCCCCF,1-FLUORONONANE,"Nonane, 1-fluoro-",1-FLUORONONANE,20941,DTXSID90196789,CCCCCCCCCF,"InChI=1S/C9H19F/c1-2-3-4-5-6-7-8-9-10/h2-9H2,1H3",ITPAUTYYXIENLO-UHFFFAOYSA-N,?,167.5,101898
101899,463-49-0,463-49-0,C=C=C,"1,2-PROPADIENE","1,2-Propadiene",propadiene,20942,DTXSID1029178,C=C=C,InChI=1S/C3H4/c1-3-2/h1-2H2,IYABWNGZIDDRAK-UHFFFAOYSA-N,?,-34.4,101899
101900,463-51-4,463-51-4,C=C=O,KETENE,Ketene,ethenone,20943,DTXSID1052113,C=C=O,InChI=1S/C2H2O/c1-2-3/h1H2,CCGKOQOJPYTBIH-UHFFFAOYSA-N,?,-49.8,101900
101902,463-71-8,463-71-8,S=C(Cl)Cl,Carbonothioic dichloride,Thiophosgene,THIOPHOSGENE,20945,DTXSID2060046,S=C(Cl)Cl,InChI=1S/CCl2S/c2-1(3)4,ZWZVWGITAAIFPS-UHFFFAOYSA-N,?,73.0,101902
101903,463-82-1,463-82-1,CC(C)(C)C,"2,2-DIMETHYLPROPANE","Propane, 2,2-dimethyl-","2,2-dimethylpropane",20946,DTXSID6029179,CC(C)(C)C,"InChI=1S/C5H12/c1-5(2,3)4/h1-4H3",CRSOQBOWXPBRES-UHFFFAOYSA-N,?,9.5,101903
101904,464-06-2,464-06-2,CC(C)C(C)(C)C,"2,2,3-TRIMETHYLBUTANE","2,2,3-Trimethylbutane","2,2,3-Trimethylbutane",20947,DTXSID7060047,CC(C)C(C)(C)C,"InChI=1S/C7H16/c1-6(2)7(3,4)5/h6H,1-5H3",ZISSAWUMDACLOM-UHFFFAOYSA-N,?,80.8,101904
101906,464-15-3,464-15-3,CC1(C)C2CCC1(C)CC2,"BICYCLO[2.2.1]HEPTANE, 1,7,7-TRIMETHYL-",Camphane,"1,7,7-Trimethylbicyclo[2.2.1]heptane",20949,DTXSID60196832,CC1(C)C2CCC1(C)CC2,"InChI=1S/C10H18/c1-9(2)8-4-6-10(9,3)7-5-8/h8H,4-7H2,1-3H3",BEWYHVAWEKZDPP-UHFFFAOYSA-N,?,161.0,101906
101907,464-17-5,2437-75-4,CC1(C)C2CC[C@@]1(C)C=C2,"BICYCLO[2.2.1]HEPT-2-ENE, 1,7,7-TRIMETHYL-",PUBCHEM_71357940,C10H16,20950,DTXSID90781977,CC1(C)C2CCC1(C)C=C2,"InChI=1S/C10H16/c1-9(2)8-4-6-10(9,3)7-5-8/h4,6,8H,5,7H2,1-3H3",KUKRLSJNTMLPPK-UHFFFAOYSA-N,?,146.0,101907
101908,464-41-5,NOCAS_861948,CC1(C)C2CC(Cl)C1(C)CC2,"BICYCLO[2.2.1]HEPTANE, 2-CHLORO-1,7,7-TRIMETHYL-",,,20951,DTXSID70861948,CC1(C)C2CC(Cl)C1(C)CC2,"InChI=1S/C10H17Cl/c1-9(2)7-4-5-10(9,3)8(11)6-7/h7-8H,4-6H2,1-3H3",XXZAOMJCZBZKPV-UHFFFAOYSA-N,?,207.5,101908
101911,464-88-0,NOCAS_871639,CC1(C)C(C)CCC1(C)C(O)=O,"Cyclopentanecarboxylic acid, 1,2,2,3-tetramethyl",,,20954,DTXSID80871639,CC1(C)C(C)CCC1(C)C(O)=O,"InChI=1S/C10H18O2/c1-7-5-6-10(4,8(11)12)9(7,2)3/h7H,5-6H2,1-4H3,(H,11,12)",JDFOIACPOPEQLS-UHFFFAOYSA-N,?,254.0,101911
101912,470-67-7,470-67-7,CC12CCC(CC1)(O2)C(C)C,"1,4-CINEOL","1,4-Cineole",1-methyl-4-(propan-2-yl)-7-oxabicyclo[2.2.1]heptane,20955,DTXSID3047396,CC12CCC(CC1)(O2)C(C)C,"InChI=1S/C10H18O/c1-8(2)10-6-4-9(3,11-10)5-7-10/h8H,4-7H2,1-3H3",RFFOTVCVTJUTAD-UHFFFAOYSA-N,?,173.5,101912
101913,470-82-6,470-82-6,CC1(C)OC2(C)CCC1CC2,"1,8-CINEOLE","1,8-Cineol","1,3,3-trimethyl-2-oxabicyclo[2.2.2]octane",20956,DTXSID4020616,CC1(C)OC2(C)CCC1CC2,"InChI=1S/C10H18O/c1-9(2)8-4-6-10(3,11-9)7-5-8/h8H,4-7H2,1-3H3",WEEGYLXZBRQIMU-UHFFFAOYSA-N,?,176.4,101913
101916,473-55-2|4795-86-2,473-55-2|6876-13-7,CC1CCC2CC1C2(C)C,"PINANE, 2,6,6-Trimethyl-bicyclo[3.1.1]heptane",Pinane,"2,6,6-trimethylbicyclo[3.1.1]heptane",20958|23696,DTXSID7025922|DTXSID6027638,CC1CCC2CC1C2(C)C,"InChI=1S/C10H18/c1-7-4-5-8-6-9(7)10(8,2)3/h7-9H,4-6H2,1-3H3",XOKSLPVRUOBDEW-UHFFFAOYSA-N,?,160.0,101916
101917,475-03-6,475-03-6,Cc1ccc2c(CCCC2(C)C)c1,"Naphthalene, 1,2,3,4-tetrahydro-1,1,6-trimethyl-","1,2,3,4-Tetrahydro-1,1,6-trimethylnaphthalene","1,1,6-trimethyl-1,2,3,4-tetrahydronaphthalene",20959,DTXSID0052120,Cc1ccc2c(CCCC2(C)C)c1,"InChI=1S/C13H18/c1-10-6-7-12-11(9-10)5-4-8-13(12,2)3/h6-7,9H,4-5,8H2,1-3H3",LTMQZVLXCLQPCT-UHFFFAOYSA-N,?,240.0,101917
101918,475-20-7,475-20-7,CC1(C)CCC[C@@]2(C)[C@@H]3CC[C@@H]([C@H]13)C2=C,LONGIFOLENE,Longifolene,"(1S,3aR,4S,8aS)-4,8,8-trimethyl-9-methylidenedecahydro-1,4-methanoazulene",20960,DTXSID9047045,CC1(C)CCCC2(C)C3CCC(C13)C2=C,"InChI=1S/C15H24/c1-10-11-6-7-12-13(11)14(2,3)8-5-9-15(10,12)4/h11-13H,1,5-9H2,2-4H3",PDSNLYSELAIEBU-UHFFFAOYSA-N,?,258.0,101918
101920,480-91-1,480-91-1,O=C1NCc2ccccc21,"2,3-DIHYDRO-1H-ISOINDOL-1-ONE","2,3-Dihydro-1H-isoindol-1-one","2,3-dihydroisoindol-1-one",20962,DTXSID30197391,O=C1NCc2ccccc21,"InChI=1S/C8H7NO/c10-8-7-4-2-1-3-6(7)5-9-8/h1-4H,5H2,(H,9,10)",PXZQEOJJUGGUIB-UHFFFAOYSA-N,?,338.0,101920
101921,483-65-8,483-65-8,Cc1cccc2c1ccc1cc(ccc12)C(C)C,"PHENANTHRENE, 1-METHYL-7-(1-METHYLETHYL)-",Retene,1-methyl-7-propan-2-ylphenanthrene,20963,DTXSID7058701,Cc1cccc2c1ccc1cc(ccc12)C(C)C,"InChI=1S/C18H18/c1-12(2)14-7-10-17-15(11-14)8-9-16-13(3)5-4-6-18(16)17/h4-12H,1-3H3",NXLOLUFNDSBYTP-UHFFFAOYSA-N,?,390.0,101921
101922,483-78-3,483-78-3,Cc1cc2c(cc1)c(C)ccc2C(C)C,Cadalene,Cadalene,"1,6-dimethyl-4-propan-2-ylnaphthalene",20964,DTXSID40197483,Cc1cc2c(cc1)c(C)ccc2C(C)C,"InChI=1S/C15H18/c1-10(2)13-8-6-12(4)14-7-5-11(3)9-15(13)14/h5-10H,1-4H3",VMOJIHDTVZTGDO-UHFFFAOYSA-N,?,294.0,101922
101924,486-25-9,486-25-9,O=C1c2ccccc2-c2ccccc21,FLUORENONE,9-Fluorenone,9H-fluoren-9-one,20966,DTXSID6049307,O=C1c2ccccc2-c2ccccc21,InChI=1S/C13H8O/c14-13-11-7-3-1-5-9(11)10-6-2-4-8-12(10)13/h1-8H,YLQWCDOCJODRMT-UHFFFAOYSA-N,?,341.5,101924
101925,486-70-4,486-70-4,OC[C@@H]1CCCN2CCCC[C@@H]21,Lupinine,Lupinine,"[(1R,9aR)-2,3,4,6,7,8,9,9a-octahydro-1H-quinolizin-1-yl]methanol",20967,DTXSID00197565,OCC1CCCN2CCCCC21,"InChI=1S/C10H19NO/c12-8-9-4-3-7-11-6-2-1-5-10(9)11/h9-10,12H,1-8H2",HDVAWXXJVMJBAR-UHFFFAOYSA-N,?,270.0,101925
101926,487-19-4,487-19-4,C[n]1cccc1-c1c[n]ccc1,1-Methyl-2-(3-pyridyl)pyrrole,"Pyridine, 3-(1-methyl-1H-pyrrol-2-yl)-",3-(1-Methylpyrrol-2-yl)pyridine,20968,DTXSID3075048,C[n]1cccc1-c1c[n]ccc1,"InChI=1S/C10H10N2/c1-12-7-3-5-10(12)9-4-2-6-11-8-9/h2-8H,1H3",RYFOJXFXERAMLS-UHFFFAOYSA-N,?,281.0,101926
101929,488-10-8,488-10-8,CC1CCC(=O)C=1C/C=C\CC,"2-Cyclopenten-1-one, 3-methyl-2-(2-pentenyl)-, (",Jasmone,3-methyl-2-[(2Z)-pent-2-en-1-yl]cyclopent-2-en-1-one,20970,DTXSID4047092,CC1CCC(=O)C=1CC=CCC,"InChI=1S/C11H16O/c1-3-4-5-6-10-9(2)7-8-11(10)12/h4-5H,3,6-8H2,1-2H3/b5-4+",XMLSXPIVAXONDL-SNAWJCMRSA-N,?,258.0,101929
101930,488-17-5,488-17-5,Cc1cccc(O)c1O,"1,2-Benzenediol, 3-methyl-","1,2-Benzenediol, 3-methyl-","3-methylbenzene-1,2-diol",20971,DTXSID9060071,Cc1cccc(O)c1O,"InChI=1S/C7H8O2/c1-5-3-2-4-6(8)7(5)9/h2-4,8-9H,1H3",PGSWEKYNAOWQDF-UHFFFAOYSA-N,?,241.0,101930
101931,488-23-3,488-23-3,Cc1ccc(C)c(C)c1C,"1,2,3,4-TETRAMETHYLBENZENE","1,2,3,4-Tetramethylbenzene","1,2,3,4-TETRAMETHYLBENZENE",20972,DTXSID4060072,Cc1ccc(C)c(C)c1C,"InChI=1S/C10H14/c1-7-5-6-8(2)10(4)9(7)3/h5-6H,1-4H3",UOHMMEJUHBCKEE-UHFFFAOYSA-N,?,205.0,101931
101933,488-87-9,488-87-9,Cc1cc(O)c(C)c(O)c1,"2,5-DIMETHYL-1,3-BENZENEDIOL","2,5-Dimethylresorcinol",,20974,DTXSID90197610,Cc1cc(O)c(C)c(O)c1,"InChI=1S/C8H10O2/c1-5-3-7(9)6(2)8(10)4-5/h3-4,9-10H,1-2H3",GHVHDYYKJYXFGU-UHFFFAOYSA-N,?,278.5,101933
101935,490-64-2,490-64-2,COc1cc(C(O)=O)c(cc1OC)OC,"Benzoic acid, 2,4,5-trimethoxy-","Benzoic acid, 2,4,5-trimethoxy-","2,4,5-Trimethoxybenzoic acid",20975,DTXSID4060076,COc1cc(C(O)=O)c(cc1OC)OC,"InChI=1S/C10H12O5/c1-13-7-5-9(15-3)8(14-2)4-6(7)10(11)12/h4-5H,1-3H3,(H,11,12)",KVZUCOGWKYOPID-UHFFFAOYSA-N,?,300.0,101935
101936,490-91-5,490-91-5,CC1=CC(=O)C(=CC1=O)C(C)C,"2,5-CYCLOHEXADIENE-1,4-DIONE, 2-METHYL-5-(1-METH","2,5-Cyclohexadiene-1,4-dione, 2-methyl-5-(1-methylethyl)-","2-methyl-5-propan-2-ylcyclohexa-2,5-diene-1,4-dione",20976,DTXSID9060079,CC1=CC(=O)C(=CC1=O)C(C)C,"InChI=1S/C10H12O2/c1-6(2)8-5-9(11)7(3)4-10(8)12/h4-6H,1-3H3",KEQHJBNSCLWCAE-UHFFFAOYSA-N,?,232.0,101936
101938,491-34-9,491-34-9,CN1CCCc2ccccc12,"1-Methyl-1,2,3,4-tetrahydro-quinoline","1,2,3,4-Tetrahydro-1-methylquinoline","1-methyl-3,4-dihydro-2H-quinoline",20978,DTXSID30197679,CN1CCCc2ccccc12,"InChI=1S/C10H13N/c1-11-8-4-6-9-5-2-3-7-10(9)11/h2-3,5,7H,4,6,8H2,1H3",YVBSECQAHGIWNF-UHFFFAOYSA-N,?,246.0,101938
101939,491-35-0,491-35-0,Cc1cc[n]c2ccccc21,4-METHYLQUINOLINE,Lepidine,4-methylquinoline,20979,DTXSID7047067,Cc1cc[n]c2ccccc21,"InChI=1S/C10H9N/c1-8-6-7-11-10-5-3-2-4-9(8)10/h2-7H,1H3",MUDSDYNRBDKLGK-UHFFFAOYSA-N,?,262.0,101939
101940,492-17-1,492-17-1,Nc1ccc(cc1)-c1ccccc1N,"2,4'-Biphenyldiamine","2,4'-Biphenyldiamine",2-(4-aminophenyl)aniline,20980,DTXSID20197709,Nc1ccc(cc1)-c1ccccc1N,"InChI=1S/C12H12N2/c13-10-7-5-9(6-8-10)11-3-1-2-4-12(11)14/h1-8H,13-14H2",RDMFEHLCCOQUMH-UHFFFAOYSA-N,?,363.0,101940
101942,492-37-5,NOCAS_862027,CC(C([O-])=O)c1ccccc1,ALPHA-PHENYLPROPIONIC ACID,2-phenylpropanoate,C9H9O2,20982,DTXSID80862027,CC(C(O)=O)c1ccccc1,"InChI=1S/C9H10O2/c1-7(9(10)11)8-5-3-2-4-6-8/h2-7H,1H3,(H,10,11)",YPGCWEMNNLXISK-UHFFFAOYSA-N,?,261.0,101942
101943,492-80-8,492-80-8,CN(C)c1ccc(cc1)C(=N)c1ccc(cc1)N(C)C,AURAMINE,Auramine,"4,4'-carbonimidoylbis(N,N-dimethylaniline)",20983,DTXSID7043821,CN(C)c1ccc(cc1)C(=N)c1ccc(cc1)N(C)C,"InChI=1S/C17H21N3/c1-19(2)15-9-5-13(6-10-15)17(18)14-7-11-16(12-8-14)20(3)4/h5-12,18H,1-4H3",JPIYZTWMUGTEHX-UHFFFAOYSA-N,?,330.5,101943
101944,492-88-6,492-88-6,CCOc1cccc(C=O)c1O,"Benzaldehyde, 3-ethoxy-2-hydroxy-","Benzaldehyde, 3-ethoxy-2-hydroxy-",3-Ethoxy-2-hydroxybenzaldehyde,20984,DTXSID3060083,CCOc1cccc(C=O)c1O,"InChI=1S/C9H10O3/c1-2-12-8-5-3-4-7(6-10)9(8)11/h3-6,11H,2H2,1H3",OFQBYHLLIJGMNP-UHFFFAOYSA-N,?,263.5,101944
101948,494-12-2,NOCAS_870558,C1CC(Oc2ccccc21)c1ccccc1,"2H-1-BENZOPYRAN, 3,4-DIHYDRO-2-PHENYL-",,,20988,DTXSID50870558,C1CC(Oc2ccccc21)c1ccccc1,"InChI=1S/C15H14O/c1-2-6-12(7-3-1)15-11-10-13-8-4-5-9-14(13)16-15/h1-9,15H,10-11H2",QOLIPNRNLBQTAU-UHFFFAOYSA-N,?,332.0,101948
101949,494-52-0,494-52-0,C1CCC[C@H](N1)c1c[n]ccc1,ANABASINE,L-3-(2'-Piperidyl)pyridine,3-[(2S)-piperidin-2-yl]pyridine,20989,DTXSID9041607,C1CCCC(N1)c1c[n]ccc1,"InChI=1S/C10H14N2/c1-2-7-12-10(5-1)9-4-3-6-11-8-9/h3-4,6,8,10,12H,1-2,5,7H2",MTXSIJUGVMTTMU-UHFFFAOYSA-N,?,276.0,101949
101950,494-55-3,494-55-3,CN1Cc2cc3OCOc3cc2CC1,Hydrohydrastinine,Hydrohydrastinine,"6-methyl-7,8-dihydro-5H-[1,3]dioxolo[4,5-g]isoquinoline",20990,DTXSID80197785,CN1Cc2cc3OCOc3cc2CC1,"InChI=1S/C11H13NO2/c1-12-3-2-8-4-10-11(14-7-13-10)5-9(8)6-12/h4-5H,2-3,6-7H2,1H3",XNZFFRJWTVYMBF-UHFFFAOYSA-N,?,304.0,101950
101952,494-99-5,494-99-5,Cc1ccc(OC)c(c1)OC,"Benzene, 1,2-dimethoxy-4-methyl-","Benzene, 1,2-dimethoxy-4-methyl-","1,2-Dimethoxy-4-methylbenzene",20992,DTXSID8060088,Cc1ccc(OC)c(c1)OC,"InChI=1S/C9H12O2/c1-7-4-5-8(10-2)9(6-7)11-3/h4-6H,1-3H3",GYPMBQZAVBFUIZ-UHFFFAOYSA-N,?,220.0,101952
101953,495-20-5,495-20-5,CC[C@@H](O)[C@@H]1CCCCN1,Conhydrine,,,20993,DTXSID10879264,CCC(O)C1CCCCN1,"InChI=1S/C8H17NO/c1-2-8(10)7-5-3-4-6-9-7/h7-10H,2-6H2,1H3",VCCAAURNBULZRR-UHFFFAOYSA-N,?,226.0,101953
101954,495-40-9,495-40-9,CCCC(=O)c1ccccc1,"1-BUTANONE, 1-PHENYL-",Butyrophenone,1-phenylbutan-1-one,20994,DTXSID3047059,CCCC(=O)c1ccccc1,"InChI=1S/C10H12O/c1-2-6-10(11)9-7-4-3-5-8-9/h3-5,7-8H,2,6H2,1H3",FFSAXUULYPJSKH-UHFFFAOYSA-N,?,228.5,101954
101956,496-10-6,3296-50-2,"C1CC[C@@H]2CCCC[C@H]21 |&1:3,8|",Bicyclo[4.3.0]nonane,trans-Octahydro-1H-indene,C9H16,20996,DTXSID20858747,C1CCC2CCCCC21,"InChI=1S/C9H16/c1-2-5-9-7-3-6-8(9)4-1/h8-9H,1-7H2",BNRNAKTVFSZAFA-UHFFFAOYSA-N,?,167.0,101956
101957,496-11-7,496-11-7,C1CCc2ccccc21,INDANE,Indan,indane,20997,DTXSID4052132,C1CCc2ccccc21,"InChI=1S/C9H10/c1-2-5-9-7-3-6-8(9)4-1/h1-2,4-5H,3,6-7H2",PQNFLJBBNBOBRQ-UHFFFAOYSA-N,?,177.9,101957
101958,496-14-0,496-14-0,C1OCc2ccccc21,PHTHALAN,"1,3-Dihydroisobenzofuran","1,3-dihydro-2-benzofuran",20998,DTXSID60197920,C1OCc2ccccc21,"InChI=1S/C8H8O/c1-2-4-8-6-9-5-7(8)3-1/h1-4H,5-6H2",SFLGSKRGOWRGBR-UHFFFAOYSA-N,?,192.0,101958
101960,496-16-2,496-16-2,C1COc2ccccc21,"2,3-DIHYDROBENZOFURAN","2,3-Dihydrobenzofuran","2,3-dihydro-1-benzofuran",21000,DTXSID2022040,C1COc2ccccc21,"InChI=1S/C8H8O/c1-2-4-8-7(3-1)5-6-9-8/h1-4H,5-6H2",HBEDSQVIWPRPAY-UHFFFAOYSA-N,?,188.5,101960
101961,496-41-3,496-41-3,OC(=O)c1cc2ccccc2o1,2-BENZOFURANCARBOXYLIC ACID,2-Benzofurancarboxylic acid,1-benzofuran-2-carboxylic acid,21001,DTXSID2060090,OC(=O)c1cc2ccccc2o1,"InChI=1S/C9H6O3/c10-9(11)8-5-6-3-1-2-4-7(6)12-8/h1-5H,(H,10,11)",OFFSPAZVIVZPHU-UHFFFAOYSA-N,?,312.5,101961
101962,496-72-0,496-72-0,Cc1cc(N)c(N)cc1,"3,4-DIAMINOTOLUENE","3,4-Diaminotoluene","4-methylbenzene-1,2-diamine",21002,DTXSID9024930,Cc1cc(N)c(N)cc1,"InChI=1S/C7H10N2/c1-5-2-3-6(8)7(9)4-5/h2-4H,8-9H2,1H3",DGRGLKZMKWPMOH-UHFFFAOYSA-N,?,265.0,101962
101964,496-78-6,496-78-6,Cc1cc(O)c(C)cc1C,"2,4,5-TRIMETHYLPHENOL","2,4,5-Trimethylphenol","2,4,5-Trimethylphenol",21004,DTXSID2060094,Cc1cc(O)c(C)cc1C,"InChI=1S/C9H12O/c1-6-4-8(3)9(10)5-7(6)2/h4-5,10H,1-3H3",VXSCPERJHPWROZ-UHFFFAOYSA-N,?,232.0,101964
101965,497-03-0|1115-11-3,497-03-0,C/C=C(\C)/C=O,"2-Butenal, 2-methyl-, (E)-, 2-BUTENAL, 2-METHYL-",2-Methyl-2-butenal,(2E)-2-methylbut-2-enal,21005|22619,DTXSID1049308,CC=C(C)C=O,"InChI=1S/C5H8O/c1-3-5(2)4-6/h3-4H,1-2H3/b5-3-",ACWQBUSCFPJUPN-HYXAFXHYSA-N,?,117.0,101965
101966,497-06-3,NOCAS_870564,C=CC(O)CO,"3-BUTENE-1,2-DIOL",,,21006,DTXSID60870564,C=CC(O)CO,"InChI=1S/C4H8O2/c1-2-4(6)3-5/h2,4-6H,1,3H2",ITMIAZBRRZANGB-UHFFFAOYSA-N,?,196.5,101966
101968,497-32-5,NOCAS_870565,CC1(C)CC2CC1CC2=C,"BICYCLO[2.2.1]HEPTANE, 2,2-DIMETHYL-5-METHYLENE-",,,21008,DTXSID20870565,CC1(C)CC2CC1CC2=C,"InChI=1S/C10H16/c1-7-4-9-5-8(7)6-10(9,2)3/h8-9H,1,4-6H2,2-3H3",NJZUUYADLXBQPA-UHFFFAOYSA-N,?,152.0,101968
101969,497-37-0,497-37-0,O[C@@H]1C[C@@H]2C[C@H]1CC2,exo-Norborneol,exo-Norborneol,"(1R,2R,4S)-bicyclo[2.2.1]heptan-2-ol",21009,DTXSID7022041,OC1CC2CC1CC2,"InChI=1S/C7H12O/c8-7-4-5-1-2-6(7)3-5/h5-8H,1-4H2",ZQTYQMYDIHMKQB-UHFFFAOYSA-N,?,176.5,101969
101970,497-39-2,497-39-2,Cc1cc(O)c(cc1C(C)(C)C)C(C)(C)C,"Phenol, 2,4-bis(1,1-dimethylethyl)-5-methyl-","4,6-Di-tert-butyl-m-cresol","2,4-di-tert-butyl-5-methylphenol",21010,DTXSID1041502,Cc1cc(O)c(cc1C(C)(C)C)C(C)(C)C,"InChI=1S/C15H24O/c1-10-8-13(16)12(15(5,6)7)9-11(10)14(2,3)4/h8-9,16H,1-7H3",WYSSJDOPILWQDC-UHFFFAOYSA-N,?,282.0,101970
101972,498-60-2,498-60-2,O=Cc1cocc1,FURAN-3-CARBOXALDEHYDE,3-Furaldehyde,furan-3-carbaldehyde,21012,DTXSID40198076,O=Cc1cocc1,InChI=1S/C5H4O2/c6-3-5-1-2-7-4-5/h1-4H,AZVSIHIBYRHSLB-UHFFFAOYSA-N,?,145.0,101972
101973,498-66-8,498-66-8,C1C2CCC1C=C2,BICYCLO[2.2.1]-2-HEPTENE,Norbornylene,bicyclo[2.2.1]hept-2-ene,21013,DTXSID2022042,C1C2CCC1C=C2,"InChI=1S/C7H10/c1-2-7-4-3-6(1)5-7/h1-2,6-7H,3-5H2",JFNLZVQOOSMTJK-UHFFFAOYSA-N,?,96.0,101973
101974,498-67-9,498-67-9,FC(Cl)(Cl)c1ccccc1,"Benzene, (dichlorofluoromethyl)-",(Dichlorofluoromethyl)benzene,(dichloro-fluoromethyl)benzene,21014,DTXSID7060099,FC(Cl)(Cl)c1ccccc1,"InChI=1S/C7H5Cl2F/c8-7(9,10)6-4-2-1-3-5-6/h1-5H",OMEURKZGLJYCGS-UHFFFAOYSA-N,?,179.0,101974
101976,501-52-0,501-52-0,OC(=O)CCc1ccccc1,BETA-PHENYLPROPIONIC ACID,Hydrocinnamic acid,3-phenylpropanoic acid,21016,DTXSID2047064,OC(=O)CCc1ccccc1,"InChI=1S/C9H10O2/c10-9(11)7-6-8-4-2-1-3-5-8/h1-5H,6-7H2,(H,10,11)",XMIIGOLPHOKFCH-UHFFFAOYSA-N,?,279.8,101976
101977,501-53-1,501-53-1,O=C(Cl)OCc1ccccc1,BENZYL CHLOROCARBONATE,Benzyl chloroformate,benzyl carbonochloridate,21017,DTXSID9027158,O=C(Cl)OCc1ccccc1,"InChI=1S/C8H7ClO2/c9-8(10)11-6-7-4-2-1-3-5-7/h1-5H,6H2",HSDAJNMJOMSNEV-UHFFFAOYSA-N,?,152.0,101977
101978,501-65-5,501-65-5,c1ccccc1C#Cc1ccccc1,DIPHENYLACETYLENE,"Benzene, 1,1'-(1,2-ethynediyl)bis-",2-phenylethynylbenzene,21018,DTXSID4060109,c1ccccc1C#Cc1ccccc1,InChI=1S/C14H10/c1-3-7-13(8-4-1)11-12-14-9-5-2-6-10-14/h1-10H,JRXXLCKWQFKACW-UHFFFAOYSA-N,?,300.0,101978
101980,502-41-0,502-41-0,OC1CCCCCC1,CYCLOHEPTANOL,Cycloheptanol,Cycloheptanol,21020,DTXSID5074713,OC1CCCCCC1,"InChI=1S/C7H14O/c8-7-5-3-1-2-4-6-7/h7-8H,1-6H2",QCRFMSUKWRQZEM-UHFFFAOYSA-N,?,185.0,101980
101981,502-42-1,502-42-1,O=C1CCCCCC1,CYCLOHEPTANONE,Cycloheptanone,Cycloheptanone,21021,DTXSID8060113,O=C1CCCCCC1,InChI=1S/C7H12O/c8-7-5-3-1-2-4-6-7/h1-6H2,CGZZMOTZOONQIA-UHFFFAOYSA-N,?,178.5,101981
101982,502-44-3,502-44-3,O=C1CCCCCO1,E-CAPROLACTONE,2-Oxepanone,oxepan-2-one,21022,DTXSID4027159,O=C1CCCCCO1,InChI=1S/C6H10O2/c7-6-4-2-1-3-5-8-6/h1-5H2,PAPBSGBWRJIAAV-UHFFFAOYSA-N,?,215.0,101982
101984,502-56-7,502-56-7,CCCCC(=O)CCCC,5-NONANONE,5-Nonanone,nonan-5-one,21024,DTXSID7022045,CCCCC(=O)CCCC,"InChI=1S/C9H18O/c1-3-5-7-9(10)8-6-4-2/h3-8H2,1-2H3",WSGCRAOTEDLMFQ-UHFFFAOYSA-N,?,188.4,101984
101985,503-01-5,503-01-5,CNC(C)CCC=C(C)C,"5-Hepten-2-amine, N,6-dimethyl-",Isometheptene,"N,6-dimethylhept-5-en-2-amine",21025,DTXSID9023172,CNC(C)CCC=C(C)C,"InChI=1S/C9H19N/c1-8(2)6-5-7-9(3)10-4/h6,9-10H,5,7H2,1-4H3",XVQUOJBERHHONY-UHFFFAOYSA-N,?,177.0,101985
101986,503-09-3,503-09-3,FCC1CO1,EPIFLUOROHYDRIN,"1,2-Epoxy-3-fluoropropane",2-(fluoromethyl)oxirane,21026,DTXSID4025244,FCC1CO1,"InChI=1S/C3H5FO/c4-1-3-2-5-3/h3H,1-2H2",OIFAHDAXIUURLN-UHFFFAOYSA-N,?,85.5,101986
101988,503-28-6,NOCAS_870570,CN=NC,"DIAZENE, DIMETHYL-",,,21028,DTXSID70870570,CN=NC,InChI=1S/C2H6N2/c1-3-4-2/h1-2H3/b4-3+,JCCAVOLDXDEODY-ONEGZZNKSA-N,?,1.5,101988
101989,503-29-7,503-29-7,C1CCN1,AZETIDINE,Azetidine,AZETIDINE,21029,DTXSID8060117,C1CCN1,"InChI=1S/C3H7N/c1-2-4-3-1/h4H,1-3H2",HONIICLYMWZJFZ-UHFFFAOYSA-N,?,63.0,101989
101990,503-30-0,503-30-0,C1CCO1,TRIMETHYLENEOXIDE,"1,3-Propylene oxide",oxetane,21030,DTXSID8025969,C1CCO1,InChI=1S/C3H6O/c1-2-4-3-1/h1-3H2,AHHWIHXENZJRFG-UHFFFAOYSA-N,?,47.6,101990
101992,503-60-6,503-60-6,CC(C)=CCCl,"2-Butene, 1-chloro-3-methyl-","2-Butene, 1-chloro-3-methyl-",1-Chloro-3-methylbut-2-ene,21032,DTXSID7060120,CC(C)=CCCl,"InChI=1S/C5H9Cl/c1-5(2)3-4-6/h3H,4H2,1-2H3",JKXQKGNGJVZKFA-UHFFFAOYSA-N,?,109.0,101992
101994,503-74-2,503-74-2,CC(C)CC(O)=O,ISOVALERIC ACID,Isovaleric acid,3-methylbutanoic acid,21033,DTXSID5029182,CC(C)CC(O)=O,"InChI=1S/C5H10O2/c1-4(2)3-5(6)7/h4H,3H2,1-2H3,(H,6,7)",GWYFCOCPABKNJV-UHFFFAOYSA-N,?,176.5,101994
101995,503-76-4,NOCAS_870571,CC(Cl)C[N+]([O-])=O,2-Chloro-1-nitropropane,,,21034,DTXSID30870571,CC(Cl)C[N+]([O-])=O,"InChI=1S/C3H6ClNO2/c1-3(4)2-5(6)7/h3H,2H2,1H3",HRYRVCUBGVCXKL-UHFFFAOYSA-N,?,172.0,101995
101997,504-15-4,504-15-4,Cc1cc(O)cc(O)c1,5-METHYLRESORCINOL,"1,3-Benzenediol, 5-methyl-","5-methylbenzene-1,3-diol",21036,DTXSID2060123,Cc1cc(O)cc(O)c1,"InChI=1S/C7H8O2/c1-5-2-6(8)4-7(9)3-5/h2-4,8-9H,1H3",OIPPWFOQEKKFEE-UHFFFAOYSA-N,?,289.5,101997
101998,504-20-1,504-20-1,CC(C)=CC(=O)C=C(C)C,PHORONE,Phorone,"2,6-dimethylhepta-2,5-dien-4-one",21037,DTXSID1021584,CC(C)=CC(=O)C=C(C)C,"InChI=1S/C9H14O/c1-7(2)5-9(10)6-8(3)4/h5-6H,1-4H3",MTZWHHIREPJPTG-UHFFFAOYSA-N,?,197.5,101998
101999,504-24-5,504-24-5,Nc1cc[n]cc1,4-AMINOPYRIDINE,4-Aminopyridine,pyridin-4-amine,21038,DTXSID0023870,Nc1cc[n]cc1,"InChI=1S/C5H6N2/c6-5-1-3-7-4-2-5/h1-4H,(H2,6,7)",NUKYPUAOHBNCPY-UHFFFAOYSA-N,?,273.0,101999
102001,504-31-4,504-31-4,O=C1C=CC=CO1,2H-PYRAN-2-ONE,2H-Pyran-2-one,pyran-2-one,21040,DTXSID50198441,O=C1C=CC=CO1,InChI=1S/C5H4O2/c6-5-3-1-2-4-7-5/h1-4H,ZPSJGADGUYYRKE-UHFFFAOYSA-N,?,207.5,102001
102002,504-60-9|1574-41-0|2004-70-8,504-60-9|1574-41-0|2004-70-8,CC=CC=C,"1,3-PENTADIENE, 1,3-PENTADIENE (Z), 1,3-PENTADIENE (E)","1,3-Pentadiene",C5H8,21041|22826|23007,DTXSID3027160|DTXSID60858741|DTXSID50858710,CC=CC=C,"InChI=1S/C5H8/c1-3-5-4-2/h3-5H,1H2,2H3/b5-4+",PMJHHCWVYXUKFD-SNAWJCMRSA-N,?,42.7,102002
102003,504-61-0,6117-91-5,CC=CCO,"2-Buten-1-ol, (E)-",But-2-en-1-ol,but-2-en-1-ol,21042,DTXSID2052283,CC=CCO,"InChI=1S/C4H8O/c1-2-3-4-5/h2-3,5H,4H2,1H3/b3-2+",WCASXYBKJHWFMY-NSCUHMNNSA-N,?,121.2,102003
102005,504-64-3,504-64-3,O=C=C=C=O,"1,2-PROPADIENE-1,3-DIONE",Carbon suboxide,,21044,DTXSID70198443,O=C=C=C=O,InChI=1S/C3O2/c4-2-1-3-5,GNEVIACKFGQMHB-UHFFFAOYSA-N,?,6.8,102005
102006,505-22-6,505-22-6,C1OCCCO1,"1,3-DIOXANE","1,3-Dioxane","1,3-dioxane",21045,DTXSID3025174,C1OCCCO1,InChI=1S/C4H8O2/c1-2-5-4-6-3-1/h1-4H2,VDFVNEFVBPFDSB-UHFFFAOYSA-N,?,106.1,102006
102007,505-29-3,505-29-3,C1CSCCS1,"1,4-DITHIANE","1,4-Dithiane","1,4-dithiane",21046,DTXSID3024077,C1CSCCS1,InChI=1S/C4H8S2/c1-2-6-4-3-5-1/h1-4H2,LOZWAPSEEHRYPG-UHFFFAOYSA-N,?,199.5,102007