ChemID,source_casrn,CAS,SMILES,NAME,preferred_name,iupac,MPID,dsstox_substance_id,Canonical_QSARr,InChI_Code_QSARr,InChI Key_QSARr,Salt_Solvent,Salt_Solvent_ID,MP,ID
104627,610-25-3,610-25-3,Cc1cc(c(cc1[N+]([O-])=O)[N+]([O-])=O)[N+]([O-])=O,"BENZENE, 1-METHYL-2,4,5-TRINITRO-","2,4,5-Trinitrotoluene","1-methyl-2,4,5-trinitrobenzene",31633,DTXSID40209853,Cc1cc(c(cc1[N+]([O-])=O)[N+]([O-])=O)[N+]([O-])=O,"InChI=1S/C7H5N3O6/c1-4-2-6(9(13)14)7(10(15)16)3-5(4)8(11)12/h2-3H,1H3",FZJGZCSVWGKDAK-UHFFFAOYSA-N,?,,104.0,104627
104631,610-48-0,610-48-0,Cc1cccc2cc3ccccc3cc21,1-METHYLANTHRACENE,"Anthracene, 1-methyl-",1-METHYLANTHRACENE,31637,DTXSID3074787,Cc1cccc2cc3ccccc3cc21,"InChI=1S/C15H12/c1-11-5-4-8-14-9-12-6-2-3-7-13(12)10-15(11)14/h2-10H,1H3",KZNJSFHJUQDYHE-UHFFFAOYSA-N,?,,85.5,104631
104635,610-69-5,610-69-5,CC(=O)Oc1ccccc1[N+]([O-])=O,O-NITROPHENYL ACETATE,"Acetic acid, 2-nitrophenyl ester",(2-nitrophenyl) acetate,31641,DTXSID7060590,CC(=O)Oc1ccccc1[N+]([O-])=O,"InChI=1S/C8H7NO4/c1-6(10)13-8-5-3-2-4-7(8)9(11)12/h2-5H,1H3",MRCKRGSNLOHYRA-UHFFFAOYSA-N,?,,40.5,104635
104639,610-93-5,NOCAS_870684,[O-][N+](=O)c1ccc2COC(=O)c2c1,"1(3H)-ISOBENZOFURANONE, 6-NITRO-",,,31645,DTXSID00870684,[O-][N+](=O)c1ccc2COC(=O)c2c1,"InChI=1S/C8H5NO4/c10-8-7-3-6(9(11)12)2-1-5(7)4-13-8/h1-3H,4H2",RNWGZXAHUPFXLL-UHFFFAOYSA-N,?,,145.0,104639
104643,611-06-3,611-06-3,[O-][N+](=O)c1ccc(Cl)cc1Cl,"2,4-DICHLORONITROBENZENE","2,4-Dichloronitrobenzene","2,4-dichloro-1-nitrobenzene",31648,DTXSID3024998,[O-][N+](=O)c1ccc(Cl)cc1Cl,InChI=1S/C6H3Cl2NO2/c7-4-1-2-6(9(10)11)5(8)3-4/h1-3H,QUIMTLZDMCNYGY-UHFFFAOYSA-N,?,,34.0,104643
104647,611-19-8,611-19-8,Clc1ccccc1CCl,"Benzene, 1-chloro-2-(chloromethyl)-",2-Chlorobenzyl chloride,1-chloro-2-(chloromethyl)benzene,31651,DTXSID3027241,Clc1ccccc1CCl,"InChI=1S/C7H6Cl2/c8-5-6-3-1-2-4-7(6)9/h1-4H,5H2",BASMANVIUSSIIM-UHFFFAOYSA-N,?,,-17.0,104647
104651,611-34-7,611-34-7,Nc1cccc2[n]cccc21,5-AMINOQUINOLINE,5-Aminoquinoline,quinolin-5-amine,31655,DTXSID80209978,Nc1cccc2[n]cccc21,"InChI=1S/C9H8N2/c10-8-4-1-5-9-7(8)3-2-6-11-9/h1-6H,10H2",XMIAFAKRAAMSGX-UHFFFAOYSA-N,?,,110.0,104651
104655,611-64-3,NOCAS_862287,Cc1c2ccccc2[n]c2ccccc21,"Acridine, 9-methyl-",,,31659,DTXSID60862287,Cc1c2ccccc2[n]c2ccccc21,"InChI=1S/C14H11N/c1-10-11-6-2-4-8-13(11)15-14-9-5-3-7-12(10)14/h2-9H,1H3",FLDRLXJNISEWNZ-UHFFFAOYSA-N,?,,118.0,104655
104661,611-79-0,611-79-0,Nc1cc(ccc1)C(=O)c1cc(N)ccc1,"3,3'-Diaminodiphenyl ketone","3,3'-Diaminobenzophenone",bis(3-aminophenyl)methanone,31665,DTXSID40209994,Nc1cc(ccc1)C(=O)c1cc(N)ccc1,"InChI=1S/C13H12N2O/c14-11-5-1-3-9(7-11)13(16)10-4-2-6-12(15)8-10/h1-8H,14-15H2",TUQQUUXMCKXGDI-UHFFFAOYSA-N,?,,173.5,104661
104665,611-97-2,611-97-2,Cc1ccc(cc1)C(=O)c1ccc(C)cc1,"Methanone, bis(4-methylphenyl)-","Methanone, bis(4-methylphenyl)-",bis(4-methylphenyl)methanone,31669,DTXSID9060603,Cc1ccc(cc1)C(=O)c1ccc(C)cc1,"InChI=1S/C15H14O/c1-11-3-7-13(8-4-11)15(16)14-9-5-12(2)6-10-14/h3-10H,1-2H3",ZWPWLKXZYNXATK-UHFFFAOYSA-N,?,,96.5,104665
104669,612-13-5,612-13-5,N#Cc1ccccc1CCl,2-Cyanobenzyl chloride,"Benzonitrile, 2-(chloromethyl)- (9CI)",2-(Chloromethyl)benzonitrile,31673,DTXSID70210098,N#Cc1ccccc1CCl,"InChI=1S/C8H6ClN/c9-5-7-3-1-2-4-8(7)6-10/h1-4H,5H2",ZSHNOXOGXHXLAV-UHFFFAOYSA-N,?,,61.0,104669
104673,612-23-7,612-23-7,[O-][N+](=O)c1ccccc1CCl,2-NITRO-BENZYLCHLORID,2-Nitrobenzyl chloride,1-(chloromethyl)-2-nitrobenzene,31677,DTXSID9025744,[O-][N+](=O)c1ccccc1CCl,"InChI=1S/C7H6ClNO2/c8-5-6-3-1-2-4-7(6)9(10)11/h1-4H,5H2",BXCBUWKTXLWPSB-UHFFFAOYSA-N,?,,51.0,104673
104677,612-35-1,612-35-1,OC(=O)c1ccccc1Cc1ccccc1,2-(PHENYLMETHYL)BENZOIC ACID,o-Benzylbenzoic acid,2-(PHENYLMETHYL)BENZOIC ACID,31681,DTXSID20210104,OC(=O)c1ccccc1Cc1ccccc1,"InChI=1S/C14H12O2/c15-14(16)13-9-5-4-8-12(13)10-11-6-2-1-3-7-11/h1-9H,10H2,(H,15,16)",FESDHLLVLYZNFY-UHFFFAOYSA-N,?,,118.0,104677
104682,612-62-4,612-62-4,Clc1ccc2ccccc2[n]1,2-CHLOROQUINOLINE,"Quinoline, 2-chloro-",2-Chloroquinoline,31685,DTXSID8060612,Clc1ccc2ccccc2[n]1,InChI=1S/C9H6ClN/c10-9-6-5-7-3-1-2-4-8(7)11-9/h1-6H,OFUFXTHGZWIDDB-UHFFFAOYSA-N,?,,38.0,104682
104687,612-94-2,612-94-2,c1c(ccc2ccccc21)-c1ccccc1,"NAPHTHALENE, 2-PHENYL-",2-Phenylnaphthalene,2-PHENYLNAPHTHALENE,31689,DTXSID8060614,c1c(ccc2ccccc21)-c1ccccc1,InChI=1S/C16H12/c1-2-6-13(7-3-1)16-11-10-14-8-4-5-9-15(14)12-16/h1-12H,TURIHPLQSRVWHU-UHFFFAOYSA-N,?,,103.5,104687
104691,613-12-7,613-12-7,Cc1cc2cc3ccccc3cc2cc1,2-METHYLANTHRACENE,2-Methylanthracene,2-Methylanthracene,31693,DTXSID8060616,Cc1cc2cc3ccccc3cc2cc1,"InChI=1S/C15H12/c1-11-6-7-14-9-12-4-2-3-5-13(12)10-15(14)8-11/h2-10H,1H3",GYMFBYTZOGMSQJ-UHFFFAOYSA-N,?,,209.0,104691
104696,613-37-6,613-37-6,COc1ccc(cc1)-c1ccccc1,4-METHOXYBIPHENYL,"1,1'-Biphenyl, 4-methoxy-",1-methoxy-4-phenylbenzene,31697,DTXSID2060620,COc1ccc(cc1)-c1ccccc1,"InChI=1S/C13H12O/c1-14-13-9-7-12(8-10-13)11-5-3-2-4-6-11/h2-10H,1H3",RHDYQUZYHZWTCI-UHFFFAOYSA-N,?,,90.0,104696
104700,613-46-7,613-46-7,N#Cc1cc2ccccc2cc1,2-Naphthalenecarbonitrile,2-Naphthalenecarbonitrile,NAPHTHALENE-2-CARBONITRILE,31701,DTXSID7060621,N#Cc1cc2ccccc2cc1,InChI=1S/C11H7N/c12-8-9-5-6-10-3-1-2-4-11(10)7-9/h1-7H,AZKDTTQQTKDXLH-UHFFFAOYSA-N,?,,66.0,104700
104704,613-59-2,613-59-2,C(c1cc2ccccc2cc1)c1ccccc1,"NAPHTHALENE, 2-(PHENYLMETHYL)-","Naphthalene, 2-benzyl- (8CI)",2-(Phenylmethyl)naphthalene,31705,DTXSID20210200,C(c1cc2ccccc2cc1)c1ccccc1,"InChI=1S/C17H14/c1-2-6-14(7-3-1)12-15-10-11-16-8-4-5-9-17(16)13-15/h1-11,13H,12H2",JASHTKAXQWIZGF-UHFFFAOYSA-N,?,,58.0,104704
104708,613-77-4,613-77-4,Clc1cc2[n]c(Cl)ccc2cc1,"2,7-Dichloroquinoline",PUBCHEM_15149506,C9H5Cl2N,31709,DTXSID90569090,Clc1cc2[n]c(Cl)ccc2cc1,InChI=1S/C9H5Cl2N/c10-7-3-1-6-2-4-9(11)12-8(6)5-7/h1-5H,VOGBOMUONXLUTI-UHFFFAOYSA-N,?,,120.0,104708
104713,613-90-1,613-90-1,N#CC(=O)c1ccccc1,"Benzeneacetonitrile, .alpha.-oxo-","Benzeneacetonitrile, .alpha.-oxo-",BENZOYL CYANIDE,31713,DTXSID2060626,N#CC(=O)c1ccccc1,InChI=1S/C8H5NO/c9-6-8(10)7-4-2-1-3-5-7/h1-5H,GJQBHOAJJGIPRH-UHFFFAOYSA-N,?,,32.5,104713
104717,614-00-6,614-00-6,CN(N=O)c1ccccc1,N-METHYL-N-NITROSOBENZENEAMINE,Nitrosomethylaniline,N-methyl-N-nitrosoaniline,31717,DTXSID9021053,CN(N=O)c1ccccc1,"InChI=1S/C7H8N2O/c1-9(8-10)7-5-3-2-4-6-7/h2-6H,1H3",MAXCWSIJKVASQC-UHFFFAOYSA-N,?,,14.7,104717
104721,614-29-9,5773-56-8,O[C@@H](Cc1ccccc1)c1ccccc1,"Benzeneethanol, .alpha.-phenyl-",5773-56-8,C14H14O,31721,DTXSID20362455,OC(Cc1ccccc1)c1ccccc1,"InChI=1S/C14H14O/c15-14(13-9-5-2-6-10-13)11-12-7-3-1-4-8-12/h1-10,14-15H,11H2",GBGXVCNOKWAMIP-UHFFFAOYSA-N,?,,67.0,104721
104727,614-48-2,NOCAS_870694,[O-][N+](=O)c1cccc(/C=C/C(=O)c2ccccc2)c1,"Chalcone, 3-nitro-",,,31725,DTXSID50870694,[O-][N+](=O)c1cccc(C=CC(=O)c2ccccc2)c1,InChI=1S/C15H11NO3/c17-15(13-6-2-1-3-7-13)10-9-12-5-4-8-14(11-12)16(18)19/h1-11H/b10-9+,SMFBODMWKWBFOK-MDZDMXLPSA-N,?,,145.5,104727
104731,614-96-0,614-96-0,Cc1cc2cc[nH]c2cc1,5-METHYLINDOLE,5-Methylindole,5-methyl-1H-indole,31729,DTXSID6060638,Cc1cc2cc[nH]c2cc1,"InChI=1S/C9H9N/c1-7-2-3-9-8(6-7)4-5-10-9/h2-6,10H,1H3",YPKBCLZFIYBSHK-UHFFFAOYSA-N,?,,60.0,104731
104735,615-11-2,615-11-2,O=C(OCc1ccco1)c1ccco1,Furan-2-carboxylic acid furan-2-ylmethyl ester,Furfuryl 2-furoate,furan-2-ylmethyl furan-2-carboxylate,31733,DTXSID60210466,O=C(OCc1ccco1)c1ccco1,"InChI=1S/C10H8O4/c11-10(9-4-2-6-13-9)14-7-8-3-1-5-12-8/h1-6H,7H2",RRYLJIZZSKSDGN-UHFFFAOYSA-N,?,,27.5,104735
104739,615-20-3,615-20-3,Clc1[n]c2ccccc2[s]1,"Benzothiazole, 2-chloro-",2-Chlorobenzothiazole,"2-chloro-1,3-benzothiazole",31737,DTXSID2052289,Clc1[n]c2ccccc2[s]1,InChI=1S/C7H4ClNS/c8-7-9-5-3-1-2-4-6(5)10-7/h1-4H,BSQLQMLFTHJVKS-UHFFFAOYSA-N,?,,24.0,104739
104743,615-42-9,615-42-9,Ic1ccccc1I,"1,2-DIIODOBENZENE","Benzene, 1,2-diiodo-","1,2-Diiodobenzene",31741,DTXSID0060648,Ic1ccccc1I,InChI=1S/C6H4I2/c7-5-3-1-2-4-6(5)8/h1-4H,BBOLNFYSRZVALD-UHFFFAOYSA-N,?,,27.0,104743
104747,615-58-7,615-58-7,Oc1ccc(Br)cc1Br,"2,4-DIBROMOPHENOL","2,4-Dibromophenol","2,4-dibromophenol",31745,DTXSID1052290,Oc1ccc(Br)cc1Br,"InChI=1S/C6H4Br2O/c7-4-1-2-6(9)5(8)3-4/h1-3,9H",FAXWFCTVSHEODL-UHFFFAOYSA-N,?,,38.0,104747
104751,615-65-6,615-65-6,Cc1cc(Cl)c(N)cc1,"Benzenamine, 2-chloro-4-methyl-",2-Chloro-4-methylaniline,2-chloro-4-methylaniline,31749,DTXSID3022083,Cc1cc(Cl)c(N)cc1,"InChI=1S/C7H8ClN/c1-5-2-3-7(9)6(8)4-5/h2-4H,9H2,1H3",XGYLSRFSXKAYCR-UHFFFAOYSA-N,?,,7.0,104751
104756,615-77-0,615-77-0,CN1C=CC(=O)NC1=O,1-METHYLURACIL,1-Methyluracil,"1-methylpyrimidine-2,4-dione",31754,DTXSID90210474,CN1C=CC(=O)NC1=O,"InChI=1S/C5H6N2O2/c1-7-3-2-4(8)6-5(7)9/h2-3H,1H3,(H,6,8,9)",XBCXJKGHPABGSD-UHFFFAOYSA-N,?,,237.0,104756
104761,615-98-5,615-98-5,CCCOC(=O)C(=O)OCCC,Oxalic acid dipropyl ester,Dipropyl oxalate,Dipropyl oxalate,31758,DTXSID00210480,CCCOC(=O)C(=O)OCCC,"InChI=1S/C8H14O4/c1-3-5-11-7(9)8(10)12-6-4-2/h3-6H2,1-2H3",HZHMMLIMOUNKCK-UHFFFAOYSA-N,?,,-44.3,104761
104765,616-31-9,616-31-9,CCC(S)CC,3-PENTANETHIOL,Pentane-3-thiol,Pentane-3-thiol,31762,DTXSID70210598,CCC(S)CC,"InChI=1S/C5H12S/c1-3-5(6)4-2/h5-6H,3-4H2,1-2H3",WICKAMSPKJXSGN-UHFFFAOYSA-N,?,,-110.8,104765
104769,616-44-4,616-44-4,Cc1c[s]cc1,3-METHYLTHIOPHENE,"Thiophene, 3-methyl-",3-Methylthiophene,31766,DTXSID8060666,Cc1c[s]cc1,"InChI=1S/C5H6S/c1-5-2-3-6-4-5/h2-4H,1H3",QENGPZGAWFQWCZ-UHFFFAOYSA-N,?,,-69.0,104769
104773,616-68-2,616-68-2,Cc1cc(C)c(NC(=O)CN(CC)CC)c(C)c1,TRIMECAIN,Trimecaine,"N~2~,N~2~-diethyl-N-(2,4,6-trimethylphenyl)glycinamide",31770,DTXSID6048410,Cc1cc(C)c(NC(=O)CN(CC)CC)c(C)c1,"InChI=1S/C15H24N2O/c1-6-17(7-2)10-14(18)16-15-12(4)8-11(3)9-13(15)5/h8-9H,6-7,10H2,1-5H3,(H,16,18)",GOZBHBFUQHMKQB-UHFFFAOYSA-N,?,,44.0,104773
104777,617-05-0,617-05-0,COc1cc(ccc1O)C(=O)OCC,"BENZOIC ACID, 4-HYDROXY-3-METHOXY-, ETHYL ESTER","Benzoic acid, 4-hydroxy-3-methoxy-, ethyl ester",Ethyl 4-hydroxy-3-methoxybenzoate,31774,DTXSID2060670,COc1cc(ccc1O)C(=O)OCC,"InChI=1S/C10H12O4/c1-3-14-10(12)7-4-5-8(11)9(6-7)13-2/h4-6,11H,3H2,1-2H3",MWAYRGBWOVHDDZ-UHFFFAOYSA-N,?,,44.0,104777
104781,617-35-6,617-35-6,CC(=O)C(=O)OCC,"Propanoic acid, 2-oxo-, ethyl ester","Propanoic acid, 2-oxo-, ethyl ester",Ethyl 2-oxopropanoate,31778,DTXSID2060674,CC(=O)C(=O)OCC,"InChI=1S/C5H8O3/c1-3-8-5(7)4(2)6/h3H2,1-2H3",XXRCUYVCPSWGCC-UHFFFAOYSA-N,?,,-50.0,104781
104786,617-83-4,617-83-4,CCN(CC)C#N,DIETHYLCYANAMIDE,"Cyanamide, diethyl-",Diethylcyanamide,31783,DTXSID20210705,CCN(CC)C#N,"InChI=1S/C5H10N2/c1-3-7(4-2)5-6/h3-4H2,1-2H3",ZZTSQZQUWBFTAT-UHFFFAOYSA-N,?,,-80.6,104786
104792,618-41-7,NOCAS_862453,OS(=O)c1ccccc1,BENZENESULFINIC ACID,Benzenesulfinic acid,Benzenesulfinic acid,31787,DTXSID50862453,OS(=O)c1ccccc1,"InChI=1S/C6H6O2S/c7-9(8)6-4-2-1-3-5-6/h1-5H,(H,7,8)",JEHKKBHWRAXMCH-UHFFFAOYSA-N,?,,84.0,104792
104795,618-47-3,618-47-3,Cc1cc(ccc1)C(N)=O,3-METHYLBENZAMIDE,m-Toluamide,3-Methylbenzamide,31790,DTXSID50210798,Cc1cc(ccc1)C(N)=O,"InChI=1S/C8H9NO/c1-6-3-2-4-7(5-6)8(9)10/h2-5H,1H3,(H2,9,10)",WGRPQCFFBRDZFV-UHFFFAOYSA-N,?,,95.0,104795
104799,618-68-8,618-68-8,OC(=O)C(Cc1ccccc1)Cc1ccccc1,"Benzenepropanoic acid, .alpha.-(phenylmethyl)-","Benzenepropanoic acid, .alpha.-(phenylmethyl)-",3-phenyl-2-(phenylmethyl)propanoic acid,31794,DTXSID6060684,OC(=O)C(Cc1ccccc1)Cc1ccccc1,"InChI=1S/C16H16O2/c17-16(18)15(11-13-7-3-1-4-8-13)12-14-9-5-2-6-10-14/h1-10,15H,11-12H2,(H,17,18)",RBLAOGBEJPHFHW-UHFFFAOYSA-N,?,,90.0,104799
104803,618-83-7,618-83-7,Oc1cc(cc(c1)C(O)=O)C(O)=O,5-Hydroxyisophthalic acid,5-Hydoxyisophthalic acid,"5-hydroxybenzene-1,3-dicarboxylic acid",31798,DTXSID1060687,Oc1cc(cc(c1)C(O)=O)C(O)=O,"InChI=1S/C8H6O5/c9-6-2-4(7(10)11)1-5(3-6)8(12)13/h1-3,9H,(H,10,11)(H,12,13)",QNVNLUSHGRBCLO-UHFFFAOYSA-N,?,,293.0,104803
104807,618-91-7,618-91-7,COC(=O)c1cccc(I)c1,"Benzoic acid, 3-iodo-, methyl ester","Benzoic acid, 3-iodo-, methyl ester",Methyl 3-iodobenzoate,31802,DTXSID1060689,COC(=O)c1cccc(I)c1,"InChI=1S/C8H7IO2/c1-11-8(10)6-3-2-4-7(9)5-6/h2-5H,1H3",NPXOIGSBRLCOSD-UHFFFAOYSA-N,?,,54.5,104807
104812,619-14-7,619-14-7,[O-][N+](=O)c1ccc(cc1O)C(O)=O,3-HYDROXY-4-NITROBENZOIC ACID,3-Hydroxy-4-nitrobenzoic acid,3-Hydroxy-4-nitrobenzoic acid,31806,DTXSID20210922,[O-][N+](=O)c1ccc(cc1O)C(O)=O,"InChI=1S/C7H5NO5/c9-6-3-4(7(10)11)1-2-5(6)8(12)13/h1-3,9H,(H,10,11)",XLDLRRGZWIEEHT-UHFFFAOYSA-N,?,,230.0,104812
104816,619-24-9,619-24-9,N#Cc1cc(ccc1)[N+]([O-])=O,3-CYANO-1-NITROBENZENE,"Benzonitrile, 3-nitro-",3-Nitrobenzonitrile,31810,DTXSID5060697,N#Cc1cc(ccc1)[N+]([O-])=O,InChI=1S/C7H4N2O2/c8-5-6-2-1-3-7(4-6)9(10)11/h1-4H,RUSAWEHOGCWOPG-UHFFFAOYSA-N,?,,116.0,104816
104820,619-41-0,619-41-0,Cc1ccc(cc1)C(=O)CBr,4-Methylphenyl bromomethyl ketone,2-Bromo-4'-methylacetophenone,2-bromo-1-(4-methylphenyl)ethanone,31814,DTXSID40210929,Cc1ccc(cc1)C(=O)CBr,"InChI=1S/C9H9BrO/c1-7-2-4-8(5-3-7)9(11)6-10/h2-5H,6H2,1H3",KRVGXFREOJHJAX-UHFFFAOYSA-N,?,,51.0,104820
104824,619-50-1,619-50-1,COC(=O)c1ccc(cc1)[N+]([O-])=O,METHYL P-NITROBENZOATE,Methyl p-nitrobenzoate,methyl 4-nitrobenzoate,31818,DTXSID3022085,COC(=O)c1ccc(cc1)[N+]([O-])=O,"InChI=1S/C8H7NO4/c1-13-8(10)6-2-4-7(5-3-6)9(11)12/h2-5H,1H3",YOJAHJGBFDPSDI-UHFFFAOYSA-N,?,,95.0,104824
104828,619-58-9,NOCAS_862304,OC(=O)c1ccc(I)cc1,4-IODOBENZOIC ACID,,,31822,DTXSID20862304,OC(=O)c1ccc(I)cc1,"InChI=1S/C7H5IO2/c8-6-3-1-5(2-4-6)7(9)10/h1-4H,(H,9,10)",GHICCUXQJBDNRN-UHFFFAOYSA-N,?,,270.0,104828
104833,619-73-8,619-73-8,[O-][N+](=O)c1ccc(CO)cc1,P-NITROBENZYL ALCOHOL,4-Nitrobenzyl alcohol,(4-nitrophenyl)methanol,31826,DTXSID1052298,[O-][N+](=O)c1ccc(CO)cc1,"InChI=1S/C7H7NO3/c9-5-6-1-3-7(4-2-6)8(10)11/h1-4,9H,5H2",JKTYGPATCNUWKN-UHFFFAOYSA-N,?,,96.5,104833
104837,619-86-3,619-86-3,CCOc1ccc(cc1)C(O)=O,P-ETHOXYBENZOIC ACID,"Benzoic acid, 4-ethoxy-",4-Ethoxybenzoic acid,31830,DTXSID2060709,CCOc1ccc(cc1)C(O)=O,"InChI=1S/C9H10O3/c1-2-12-8-5-3-7(4-6-8)9(10)11/h3-6H,2H2,1H3,(H,10,11)",SHSGDXCJYVZFTP-UHFFFAOYSA-N,?,,198.0,104837
104841,620-16-6,620-16-6,CCc1cccc(Cl)c1,"BENZENE, 1-CHLORO-3-ETHYL-","Benzene, 1-chloro-3-ethyl-",1-Chloro-3-ethylbenzene,31834,DTXSID40211032,CCc1cccc(Cl)c1,"InChI=1S/C8H9Cl/c1-2-7-4-3-5-8(9)6-7/h3-6H,2H2,1H3",LOXUEGMPESDGBQ-UHFFFAOYSA-N,?,,-55.0,104841
104845,620-32-6,620-32-6,O=S(=O)(Cc1ccccc1)Cc1ccccc1,Dibenzylsulfone,Dibenzyl sulphone,phenylmethylsulfonylmethylbenzene,31838,DTXSID70211040,O=S(=O)(Cc1ccccc1)Cc1ccccc1,"InChI=1S/C14H14O2S/c15-17(16,11-13-7-3-1-4-8-13)12-14-9-5-2-6-10-14/h1-10H,11-12H2",AWHNUHMUCGRKRA-UHFFFAOYSA-N,?,,152.0,104845
104850,620-81-5,620-81-5,O=C(Nc1ccccc1)C(=O)Nc1ccccc1,"Ethanediamide, N,N'-diphenyl-","Ethanediamide, N,N'-diphenyl-","N,N'-di(phenyl)oxamide",31842,DTXSID0060723,O=C(Nc1ccccc1)C(=O)Nc1ccccc1,"InChI=1S/C14H12N2O2/c17-13(15-11-7-3-1-4-8-11)14(18)16-12-9-5-2-6-10-12/h1-10H,(H,15,17)(H,16,18)",FTWUXYZHDFCGSV-UHFFFAOYSA-N,?,,254.0,104850
104854,620-88-2,620-88-2,[O-][N+](=O)c1ccc(cc1)Oc1ccccc1,4-NITRO DIPHENYL ETHER,4-Nitrophenyl phenyl ether,1-nitro-4-phenoxybenzene,31846,DTXSID3022087,[O-][N+](=O)c1ccc(cc1)Oc1ccccc1,InChI=1S/C12H9NO3/c14-13(15)10-6-8-12(9-7-10)16-11-4-2-1-3-5-11/h1-9H,JDTMUJBWSGNMGR-UHFFFAOYSA-N,?,,61.0,104854
104858,620-95-1,620-95-1,C(c1c[n]ccc1)c1ccccc1,3-BENZYLPYRIDINE,3-Benzylpyridine,3-(phenylmethyl)pyridine,31850,DTXSID80211051,C(c1c[n]ccc1)c1ccccc1,"InChI=1S/C12H11N/c1-2-5-11(6-3-1)9-12-7-4-8-13-10-12/h1-8,10H,9H2",UUCLVSDUMKMBSM-UHFFFAOYSA-N,?,,34.0,104858
104863,621-15-8,621-15-8,CCCCCC(=O)Nc1ccccc1,CAPRYLANILIDE,"Hexanamide, N-phenyl- (9CI)",N-Phenylhexanamide,31854,DTXSID50211144,CCCCCC(=O)Nc1ccccc1,"InChI=1S/C12H17NO/c1-2-3-5-10-12(14)13-11-8-6-4-7-9-11/h4,6-9H,2-3,5,10H2,1H3,(H,13,14)",JBTCHCWUNMZNEO-UHFFFAOYSA-N,?,,95.0,104863
104868,621-37-4,621-37-4,Oc1cccc(CC(O)=O)c1,M-HYDROXYPHENYLACETIC ACID,3-Hydroxyphenylacetic acid,2-(3-hydroxyphenyl)acetic acid,31858,DTXSID90211148,Oc1cccc(CC(O)=O)c1,"InChI=1S/C8H8O3/c9-7-3-1-2-6(4-7)5-8(10)11/h1-4,9H,5H2,(H,10,11)",FVMDYYGIDFPZAX-UHFFFAOYSA-N,?,,132.0,104868
104872,621-52-3,621-52-3,CCOc1cc(ccc1)[N+]([O-])=O,3-Ethoxynitrobenzene,3-Nitrophenetole,1-Ethoxy-3-nitrobenzene,31862,DTXSID40211153,CCOc1cc(ccc1)[N+]([O-])=O,"InChI=1S/C8H9NO3/c1-2-12-8-5-3-4-7(6-8)9(10)11/h3-6H,2H2,1H3",LFOLBPDHVGDKGJ-UHFFFAOYSA-N,?,,36.0,104872
104876,621-79-4,621-79-4,NC(=O)C=Cc1ccccc1,CINNAMAMIDE,"2-Propenamide, 3-phenyl-",,31866,DTXSID4060739,NC(=O)C=Cc1ccccc1,"InChI=1S/C9H9NO/c10-9(11)7-6-8-4-2-1-3-5-8/h1-7H,(H2,10,11)/b7-6+",APEJMQOBVMLION-VOTSOKGWSA-N,?,,149.0,104876
104881,622-04-8,622-04-8,OC(COc1ccccc1)COc1ccccc1,"2-Propanol, 1,3-diphenoxy-","1,3-Diphenoxy-2-propanol","1,3-bis(phenoxy)propan-2-ol",31871,DTXSID80211233,OC(COc1ccccc1)COc1ccccc1,"InChI=1S/C15H16O3/c16-13(11-17-14-7-3-1-4-8-14)12-18-15-9-5-2-6-10-15/h1-10,13,16H,11-12H2",NKCVHIPHZCIEFC-UHFFFAOYSA-N,?,,81.5,104881
104886,622-32-2,932-90-1,ON=Cc1ccccc1,"BENZALDEHYDE, OXIME, (Z)-","Benzaldehyde, oxime",?,31874,DTXSID6061313,O=NCc1ccccc1,"InChI=1S/C7H7NO/c9-8-6-7-4-2-1-3-5-7/h1-5H,6H2",VBXAEFHLULAXHG-UHFFFAOYSA-N,?,,36.5,104886
104890,622-45-7,622-45-7,CC(=O)OC1CCCCC1,CYCLOHEXYL ACETATE,Cyclohexyl acetate,cyclohexyl acetate,31878,DTXSID6052299,CC(=O)OC1CCCCC1,"InChI=1S/C8H14O2/c1-7(9)10-8-5-3-2-4-6-8/h8H,2-6H2,1H3",YYLLIJHXUHJATK-UHFFFAOYSA-N,?,,-65.0,104890
104894,622-61-7,622-61-7,CCOc1ccc(Cl)cc1,"Benzene, 1-chloro-4-ethoxy-","Benzene, 1-chloro-4-ethoxy-",1-Chloro-4-ethoxybenzene,31882,DTXSID2060757,CCOc1ccc(Cl)cc1,"InChI=1S/C8H9ClO/c1-2-10-8-5-3-7(9)4-6-8/h3-6H,2H2,1H3",IXLSVQMYQRAMEW-UHFFFAOYSA-N,?,,21.0,104894
104899,622-96-8,622-96-8,Cc1ccc(CC)cc1,P-ETHYLTOLUENE,4-Ethyltoluene,1-ethyl-4-methylbenzene,31886,DTXSID9029194,Cc1ccc(CC)cc1,"InChI=1S/C9H12/c1-3-9-6-4-8(2)5-7-9/h4-7H,3H2,1-2H3",JRLPEMVDPFPYPJ-UHFFFAOYSA-N,?,,-62.3,104899
104903,623-03-0,623-03-0,N#Cc1ccc(Cl)cc1,"BENZONITRILE, 4-CHLORO-",4-Chlorobenzonitrile,4-chlorobenzonitrile,31890,DTXSID8044703,N#Cc1ccc(Cl)cc1,InChI=1S/C7H4ClN/c8-7-3-1-6(5-9)2-4-7/h1-4H,GJNGXPDXRVXSEH-UHFFFAOYSA-N,?,,95.0,104903
104907,623-15-4,623-15-4,CC(=O)C=Cc1ccco1,"3-BUTEN-2-ONE, 4-(2-FURANYL)-",Furfural acetone,C8H8O2,31894,DTXSID2025345,CC(=O)C=Cc1ccco1,"InChI=1S/C8H8O2/c1-7(9)4-5-8-3-2-6-10-8/h2-6H,1H3/b5-4+",GBKGJMYPQZODMI-SNAWJCMRSA-N,?,,39.5,104907
104911,623-27-8,623-27-8,O=Cc1ccc(cc1)C=O,"1,4-Benzenedicarboxaldehyde","1,4-Benzenedicarboxaldehyde",Terephthalaldehyde,31898,DTXSID6060769,O=Cc1ccc(cc1)C=O,InChI=1S/C8H6O2/c9-5-7-1-2-8(6-10)4-3-7/h1-6H,KUCOHFSKRZZVRO-UHFFFAOYSA-N,?,,117.0,104911
104915,623-59-6,623-59-6,CC(=O)NC(=O)NC,"ACETAMIDE, N- (METHYLAMINO)CARBONYL -","Acetamide, N-[(methylamino)carbonyl]-",N-(methylcarbamoyl)acetamide,31902,DTXSID0060773,CC(=O)NC(=O)NC,"InChI=1S/C4H8N2O2/c1-3(7)6-4(8)5-2/h1-2H3,(H2,5,6,7,8)",XRVHSOXXNQTWAW-UHFFFAOYSA-N,?,,180.5,104915
104919,623-76-7,623-76-7,CCNC(=O)NCC,"UREA, N,N'-DIETHYL-","Urea, N,N'-diethyl (9CI)","1,3-Diethylurea",31906,DTXSID90211365,CCNC(=O)NCC,"InChI=1S/C5H12N2O/c1-3-6-5(8)7-4-2/h3-4H2,1-2H3,(H2,6,7,8)",ZWAVGZYKJNOTPX-UHFFFAOYSA-N,?,,112.5,104919
104925,624-04-4,624-04-4,CCCCCCCCCCCC(=O)OCCOC(=O)CCCCCCCCCCC,"Dodecanoic acid, 1,2-ethanediyl ester","Dodecanoic acid, 1,2-ethanediyl ester",2-dodecanoyloxyethyl dodecanoate,31911,DTXSID0060779,CCCCCCCCCCCC(=O)OCCOC(=O)CCCCCCCCCCC,"InChI=1S/C26H50O4/c1-3-5-7-9-11-13-15-17-19-21-25(27)29-23-24-30-26(28)22-20-18-16-14-12-10-8-6-4-2/h3-24H2,1-2H3",ZVUNTIMPQCQCAQ-UHFFFAOYSA-N,?,,56.6,104925
104929,624-16-8,624-16-8,CCCC(=O)CCCCCC,4-DECANONE,4-Decanone,decan-4-one,31915,DTXSID40211451,CCCC(=O)CCCCCC,"InChI=1S/C10H20O/c1-3-5-6-7-9-10(11)8-4-2/h3-9H2,1-2H3",MKJDUHZPLQYUCB-UHFFFAOYSA-N,?,,-9.0,104929
104938,624-54-4,624-54-4,CCCCCOC(=O)CC,AMYL PROPIONATE,Pentyl propionate,pentyl propanoate,31919,DTXSID4041606,CCCCCOC(=O)CC,"InChI=1S/C8H16O2/c1-3-5-6-7-10-8(9)4-2/h3-7H2,1-2H3",TWSRVQVEYJNFKQ-UHFFFAOYSA-N,?,,-73.1,104938
104944,624-83-9,624-83-9,CN=C=O,METHYLISOCYANATE,Methyl isocyanate,isocyanatomethane,31924,DTXSID1023786,CN=C=O,InChI=1S/C2H3NO/c1-3-2-4/h1H3,HAMGRBXTJNITHG-UHFFFAOYSA-N,?,,-45.0,104944
104948,624-92-0,624-92-0,CSSC,DIMETHYLDISULFIDE,Methyl disulfide,dimethyl disulfide,31928,DTXSID4025117,CSSC,InChI=1S/C2H6S2/c1-3-4-2/h1-2H3,WQOXQRCZOLPYPM-UHFFFAOYSA-N,?,,-85.0,104948