ChemID,source_casrn,CAS,SMILES,NAME,preferred_name,iupac,MPID,dsstox_substance_id,Canonical_QSARr,InChI_Code_QSARr,InChI Key_QSARr,Salt_Solvent,BP,ID
101686,354-65-4,354-65-4,FC(F)(I)C(F)(F)I,"1,1,2,2-Tetrafluoro-1,2-diiodoethane","Ethane, 1,1,2,2-tetrafluoro-1,2-diiodo-","1,1,2,2-Tetrafluoro-1,2-diiodoethane",20737,DTXSID5073165,FC(F)(I)C(F)(F)I,"InChI=1S/C2F4I2/c3-1(4,7)2(5,6)8",NZXVPCQHQVWOFD-UHFFFAOYSA-N,?,112.0,101686
101688,354-92-7,354-92-7,FC(C(F)(F)F)(C(F)(F)F)C(F)(F)F,"1,1,1,2,3,3,3-Heptafluoro-2-trifluoroMe-propane",Perflisobutane,"1,1,1,2,3,3,3-Heptafluoro-2-(trifluoromethyl)propane",20738,DTXSID50188882,FC(C(F)(F)F)(C(F)(F)F)C(F)(F)F,"InChI=1S/C4F10/c5-1(2(6,7)8,3(9,10)11)4(12,13)14",COQIQRBKEGPRSG-UHFFFAOYSA-N,?,0.0,101688
101689,355-02-2,355-02-2,FC(F)(F)C1(F)C(F)(F)C(F)(F)C(F)(F)C(F)(F)C1(F)F,PERFLUOROMETHYLCYCLOHEXANE,"Cyclohexane, 1,1,2,2,3,3,4,4,5,5,6-undecafluoro-6-(trifluoromethyl)-","1,1,2,2,3,3,4,4,5,5,6-undecafluoro-6-(trifluoromethyl)cyclohexane",20739,DTXSID5059874,FC(F)(F)C1(F)C(F)(F)C(F)(F)C(F)(F)C(F)(F)C1(F)F,"InChI=1S/C7F14/c8-1(7(19,20)21)2(9,10)4(13,14)6(17,18)5(15,16)3(1,11)12",QIROQPWSJUXOJC-UHFFFAOYSA-N,?,76.3,101689
101691,355-20-4,NOCAS_870512,FC(F)(F)C(F)(Cl)C(F)(Cl)C(F)(F)F,"BUTANE, 2,3-DICHLORO-1,1,1,2,3,4,4,4-OCTAFLUORO-",,,20741,DTXSID90870512,FC(F)(F)C(F)(Cl)C(F)(Cl)C(F)(F)F,"InChI=1S/C4Cl2F8/c5-1(7,3(9,10)11)2(6,8)4(12,13)14",LXANZHXWGZWFAC-UHFFFAOYSA-N,?,63.0,101691
101692,355-25-9,355-25-9,FC(F)(F)C(F)(F)C(F)(F)C(F)(F)F,DECAFLUOROBUTANE,Perfluorobutane,"1,1,1,2,2,3,3,4,4,4-decafluorobutane",20742,DTXSID5059876,FC(F)(F)C(F)(F)C(F)(F)C(F)(F)F,"InChI=1S/C4F10/c5-1(6,3(9,10)11)2(7,8)4(12,13)14",KAVGMUDTWQVPDF-UHFFFAOYSA-N,?,-1.9,101692
101693,355-42-0,355-42-0,FC(F)(F)C(F)(F)C(F)(F)C(F)(F)C(F)(F)C(F)(F)F,PERFLUORO-N-HEXANE,Perflexane,tetradecafluorohexane,20743,DTXSID7046548,FC(F)(F)C(F)(F)C(F)(F)C(F)(F)C(F)(F)C(F)(F)F,"InChI=1S/C6F14/c7-1(8,3(11,12)5(15,16)17)2(9,10)4(13,14)6(18,19)20",ZJIJAJXFLBMLCK-UHFFFAOYSA-N,?,56.6,101693
101695,355-46-4,355-46-4,OS(=O)(=O)C(F)(F)C(F)(F)C(F)(F)C(F)(F)C(F)(F)C(F)(F)F,Perfluorohexane-1-sulfonic Acid,PFHxS,"1,1,2,2,3,3,4,4,5,5,6,6,6-tridecafluorohexane-1-sulfonic acid",20745,DTXSID7040150,OS(=O)(=O)C(F)(F)C(F)(F)C(F)(F)C(F)(F)C(F)(F)C(F)(F)F,"InChI=1S/C6HF13O3S/c7-1(8,3(11,12)5(15,16)17)2(9,10)4(13,14)6(18,19)23(20,21)22/h(H,20,21,22)",QZHDEAJFRJCDMF-UHFFFAOYSA-N,?,238.5,101695
101696,355-63-5,355-63-5,FC(F)(F)C(F)(F)C(F)(F)C(F)(F)C(F)(F)C(F)=C(F)F,Tetradecafluoro-hept-1-ene,Perfluorohept-1-ene,"1,1,2,3,3,4,4,5,5,6,6,7,7,7-tetradecafluorohept-1-ene",20746,DTXSID00188998,FC(F)(F)C(F)(F)C(F)(F)C(F)(F)C(F)(F)C(F)=C(F)F,"InChI=1S/C7F14/c8-1(2(9)10)3(11,12)4(13,14)5(15,16)6(17,18)7(19,20)21",CDAVUOSPHHTNBU-UHFFFAOYSA-N,?,81.0,101696
101697,355-68-0,355-68-0,FC1(F)C(F)(F)C(F)(F)C(F)(F)C(F)(F)C1(F)F,PERFLUOROCYCLOHEXANE,"Cyclohexane, dodecafluoro-","1,1,2,2,3,3,4,4,5,5,6,6-dodecafluorocyclohexane",20747,DTXSID5075232,FC1(F)C(F)(F)C(F)(F)C(F)(F)C(F)(F)C1(F)F,"InChI=1S/C6F12/c7-1(8)2(9,10)4(13,14)6(17,18)5(15,16)3(1,11)12",RKIMETXDACNTIE-UHFFFAOYSA-N,?,50.6,101697
101699,355-80-6,355-80-6,OCC(F)(F)C(F)(F)C(F)(F)C(F)F,"1-Pentanol, 2,2,3,3,4,4,5,5-octafluoro-","1-Pentanol, 2,2,3,3,4,4,5,5-octafluoro-","2,2,3,3,4,4,5,5-Octafluoropentan-1-ol",20749,DTXSID0059879,OCC(F)(F)C(F)(F)C(F)(F)C(F)F,"InChI=1S/C5H4F8O/c6-2(7)4(10,11)5(12,13)3(8,9)1-14/h2,14H,1H2",JUGSKHLZINSXPQ-UHFFFAOYSA-N,?,140.5,101699
101700,356-16-1,NOCAS_870513,[O-][N+](=O)C(F)(F)C(F)(F)[N+]([O-])=O,"ETHANE, 1,1,2,2-TETRAFLUORO-1,2-DINITRO-",,,20750,DTXSID50870513,[O-][N+](=O)C(F)(F)C(F)(F)[N+]([O-])=O,"InChI=1S/C2F4N2O4/c3-1(4,7(9)10)2(5,6)8(11)12",NELYAMNMZQGYAJ-UHFFFAOYSA-N,?,58.5,101700
101701,356-18-3,NOCAS_870514,FC1(F)C(F)(Cl)C(F)(Cl)C1(F)F,"1,2-Dichloro-1,2,3,3,4,4-hexafluorocyclobutane",,,20751,DTXSID10870514,FC1(F)C(F)(Cl)C(F)(Cl)C1(F)F,"InChI=1S/C4Cl2F6/c5-1(7)2(6,8)4(11,12)3(1,9)10",LMHAGAHDHRQIMB-UHFFFAOYSA-N,?,59.5,101701
101703,356-27-4,356-27-4,CCOC(=O)C(F)(F)C(F)(F)C(F)(F)F,"Butanoic acid, heptafluoro-, ethyl ester",Ethyl heptafluorobutyrate,"ethyl 2,2,3,3,4,4,4-heptafluorobutanoate",20753,DTXSID9059882,CCOC(=O)C(F)(F)C(F)(F)C(F)(F)F,"InChI=1S/C6H5F7O2/c1-2-15-3(14)4(7,8)5(9,10)6(11,12)13/h2H2,1H3",JVHJRIQPDBCRRE-UHFFFAOYSA-N,?,95.0,101703
101704,356-42-3,NOCAS_870515,O=C(OC(=O)C(F)(F)C(F)(F)F)C(F)(F)C(F)(F)F,"Propanoic acid, pentafluoro-, anhydride",,,20754,DTXSID70870515,O=C(OC(=O)C(F)(F)C(F)(F)F)C(F)(F)C(F)(F)F,"InChI=1S/C6F10O3/c7-3(8,5(11,12)13)1(17)19-2(18)4(9,10)6(14,15)16",XETRHNFRKCNWAJ-UHFFFAOYSA-N,?,73.0,101704
101706,358-06-5,358-06-5,CC[Si](F)(F)CC,Difluorodiethyl silane,"Silane, diethyldifluoro-",diethyl-difluorosilane,20755,DTXSID60189325,CC[Si](F)(F)CC,"InChI=1S/C4H10F2Si/c1-3-7(5,6)4-2/h3-4H2,1-2H3",OJBGGLLCYJYHPG-UHFFFAOYSA-N,?,61.0,101706
101708,358-99-6,358-99-6,FC=C(F)Br,"ETHYLENE, 1-BROMO-1,2-DIFLUORO-","1-bromo-1,2-difluoroethene",C2HBrF2,20757,DTXSID70343239,FC=C(F)Br,InChI=1S/C2HBrF2/c3-2(5)1-4/h1H/b2-1+,YQPBMUIOKYTYDS-OWOJBTEDSA-N,?,19.0,101708
101709,359-07-9,359-07-9,FC(F)CBr,"2-Bromo-1,1-difluoroethane","Ethane, 2-bromo-1,1-difluoro-","2-Bromo-1,1-difluoroethane",20758,DTXSID2074403,FC(F)CBr,"InChI=1S/C2H3BrF2/c3-1-2(4)5/h2H,1H2",JVYROUWXXSWCMI-UHFFFAOYSA-N,?,57.3,101709
101710,359-10-4,359-10-4,FC(F)=CCl,"CHLORO-1,1-DIFLUOROETHYLENE","Ethene, 2-chloro-1,1-difluoro-","2-chloro-1,1-difluoroethene",20759,DTXSID3073898,FC(F)=CCl,InChI=1S/C2HClF2/c3-1-2(4)5/h1H,HTHNTJCVPNKCPZ-UHFFFAOYSA-N,?,-18.5,101710
101712,359-13-7,359-13-7,OCC(F)F,"2,2-DIFLUOROETHANOL",Difluoroethanol,"2,2-difluoroethanol",20761,DTXSID90189459,OCC(F)F,"InChI=1S/C2H4F2O/c3-2(4)1-5/h2,5H,1H2",VOGSDFLJZPNWHY-UHFFFAOYSA-N,?,95.5,101712
101713,359-28-4,NOCAS_861897,FC(Cl)C(Cl)Cl,"ETHANE, 1,1,2-TRICHLORO-2-FLUORO-",,,20762,DTXSID20861897,FC(Cl)C(Cl)Cl,InChI=1S/C2H2Cl3F/c3-1(4)2(5)6/h1-2H,ORMSTDJYMPIZAO-UHFFFAOYSA-N,?,102.0,101713
101714,359-29-5,359-29-5,FC(Cl)=C(Cl)Cl,CHLOROTRIFLUOROETHENE,Trichlorofluoroethylene,"1,1,2-trichloro-2-fluoroethene",20763,DTXSID60189461,FC(Cl)=C(Cl)Cl,InChI=1S/C2Cl3F/c3-1(4)2(5)6,LFMIQNJMJJKICW-UHFFFAOYSA-N,?,71.0,101714
101716,359-37-5,359-37-5,FC(F)=C(F)I,"ETHENE, TRIFLUOROIODO-","Ethene, trifluoroiodo-","1,1,2-trifluoro-2-iodoethene",20765,DTXSID0073166,FC(F)=C(F)I,InChI=1S/C2F3I/c3-1(4)2(5)6,PZVZTKFRZJMHEM-UHFFFAOYSA-N,?,30.0,101716
101717,359-70-6,359-70-6,FC(F)(F)C(F)(F)N(C(F)(F)C(F)(F)F)C(F)(F)C(F)(F)F,Perfluoro-tri-n-ethylamine,Perfluorotriethylamine,"1,1,2,2,2-pentafluoro-N,N-bis(1,1,2,2,2-pentafluoroethyl)ethanamine",20766,DTXSID40189464,FC(F)(F)C(F)(F)N(C(F)(F)C(F)(F)F)C(F)(F)C(F)(F)F,"InChI=1S/C6F15N/c7-1(8,9)4(16,17)22(5(18,19)2(10,11)12)6(20,21)3(13,14)15",CBEFDCMSEZEGCX-UHFFFAOYSA-N,?,70.3,101717
101718,360-89-4,360-89-4,FC(F)(F)C(F)=C(F)C(F)(F)F,OCTAFLUORO-2-BUTENE,"2-Butene, 1,1,1,2,3,4,4,4-octafluoro-",,20767,DTXSID3059890,FC(F)(F)C(F)=C(F)C(F)(F)F,"InChI=1S/C4F8/c5-1(3(7,8)9)2(6)4(10,11)12/b2-1+",WSJULBMCKQTTIG-OWOJBTEDSA-N,?,1.5,101718
101720,364-74-9,364-74-9,[O-][N+](=O)c1cc(F)ccc1F,"BENZENE, 1,4-DIFLUORO-2-NITRO-","2,5-Difluoronitrobenzene","1,4-Difluoro-2-nitrobenzene",20769,DTXSID60189921,[O-][N+](=O)c1cc(F)ccc1F,InChI=1S/C6H3F2NO2/c7-4-1-2-5(8)6(3-4)9(10)11/h1-3H,XNJAYQHWXYJBBD-UHFFFAOYSA-N,?,206.5,101720
101721,366-18-7,366-18-7,c1ccc[n]c1-c1cccc[n]1,"2,2-BIPYRIDINE","2,2'-Dipyridyl","2,2'-bipyridine",20770,DTXSID9040635,c1ccc[n]c1-c1cccc[n]1,InChI=1S/C10H8N2/c1-3-7-11-9(5-1)10-6-2-4-8-12-10/h1-8H,ROFVEXUMMXZLPA-UHFFFAOYSA-N,?,273.5,101721
101722,367-11-3,367-11-3,Fc1ccccc1F,"1,2-DIFLUOROBENZENE","Benzene, 1,2-difluoro-","1,2-Difluorobenzene",20771,DTXSID2075390,Fc1ccccc1F,InChI=1S/C6H4F2/c7-5-3-1-2-4-6(5)8/h1-4H,GOYDNIKZWGIXJT-UHFFFAOYSA-N,?,94.0,101722
101724,367-21-5,367-21-5,Nc1cc(Cl)c(F)cc1,3-CHLORO-4-FLUOROANILINE,3-Chloro-4-fluoroaniline,3-chloro-4-fluoroaniline,20773,DTXSID0038754,Nc1cc(Cl)c(F)cc1,"InChI=1S/C6H5ClFN/c7-5-3-4(9)1-2-6(5)8/h1-3H,9H2",YSEMCVGMNUUNRK-UHFFFAOYSA-N,?,227.5,101724
101725,367-23-7,367-23-7,Fc1cc(F)c(F)cc1,"BENZENE, 1,2,4-TRIFLUORO-","1,2,4-Trifluorobenzene","1,2,4-Trifluorobenzene",20774,DTXSID30190140,Fc1cc(F)c(F)cc1,InChI=1S/C6H3F3/c7-4-1-2-5(8)6(9)3-4/h1-3H,PEBWOGPSYUIOBP-UHFFFAOYSA-N,?,90.0,101725
101726,367-25-9,367-25-9,Nc1ccc(F)cc1F,"2,4-DIFLUOROANILINE","2,4-Difluoroaniline","2,4-difluoroaniline",20775,DTXSID6025064,Nc1ccc(F)cc1F,"InChI=1S/C6H5F2N/c7-4-1-2-6(9)5(8)3-4/h1-3H,9H2",CEPCPXLLFXPZGW-UHFFFAOYSA-N,?,170.0,101726
101728,368-43-4,368-43-4,O=S(=O)(F)c1ccccc1,Benzenesulfonyl fluoride,Benzenesulfonyl fluoride,BENZENESULFONYL FLUORIDE,20777,DTXSID8059897,O=S(=O)(F)c1ccccc1,"InChI=1S/C6H5FO2S/c7-10(8,9)6-4-2-1-3-5-6/h1-5H",IDIPWEYIBKUDNY-UHFFFAOYSA-N,?,203.5,101728
101729,368-47-8,368-47-8,F[Si](F)(F)c1ccccc1,Trifluorophenyl silane,"Silane, phenyltrifluoro-",trifluoro-phenylsilane,20778,DTXSID90190267,F[Si](F)(F)c1ccccc1,"InChI=1S/C6H5F3Si/c7-10(8,9)6-4-2-1-3-5-6/h1-5H",KGWNTHHPMKEAIK-UHFFFAOYSA-N,?,101.5,101729
101730,368-66-1,368-66-1,FC(F)(F)c1[n]c([n]c([n]1)C(F)(F)F)C(F)(F)F,"2,4,6-Tris-(trifluoromethyl)-1,3,5-triazine","2,4,6-Tris(trifluoromethyl)-sym-triazine","2,4,6-Tris(trifluoromethyl)-1,3,5-triazine",20779,DTXSID20190270,FC(F)(F)c1[n]c([n]c([n]1)C(F)(F)F)C(F)(F)F,"InChI=1S/C6F9N3/c7-4(8,9)1-16-2(5(10,11)12)18-3(17-1)6(13,14)15",LSGBKABSSSIRJF-UHFFFAOYSA-N,?,95.5,101730
101732,368-98-9,NOCAS_870519,FB(F)c1ccccc1,"Borane, difluorophenyl-",,,20781,DTXSID10870519,FB(F)c1ccccc1,InChI=1S/C6H5BF2/c8-7(9)6-4-2-1-3-5-6/h1-5H,WATLWUFSKRFBOD-UHFFFAOYSA-N,?,98.0,101732
101733,371-40-4,371-40-4,Nc1ccc(F)cc1,4-FLUOROANILINE,4-Fluoroaniline,4-fluoroaniline,20782,DTXSID9022027,Nc1ccc(F)cc1,"InChI=1S/C6H6FN/c7-5-1-3-6(8)4-2-5/h1-4H,8H2",KRZCOLNOCZKSDF-UHFFFAOYSA-N,?,182.0,101733
101734,371-41-5,371-41-5,Oc1ccc(F)cc1,P-FLUOROPHENOL,4-Fluorophenol,4-fluorophenol,20783,DTXSID0052047,Oc1ccc(F)cc1,"InChI=1S/C6H5FO/c7-5-1-3-6(8)4-2-5/h1-4,8H",RHMPLDJJXGPMEX-UHFFFAOYSA-N,?,185.5,101734
101736,372-18-9,372-18-9,Fc1cc(F)ccc1,M-DIFLUOROBENZENE,"1,3-Difluorobenzene","1,3-DIFLUOROBENZENE",20785,DTXSID50190682,Fc1cc(F)ccc1,InChI=1S/C6H4F2/c7-5-2-1-3-6(8)4-5/h1-4H,UEMGWPRHOOEKTA-UHFFFAOYSA-N,?,82.6,101736
101737,372-19-0,372-19-0,Nc1cc(F)ccc1,3-FLUOROANILINE,3-Fluoroaniline,3-Fluoroaniline,20786,DTXSID10190683,Nc1cc(F)ccc1,"InChI=1S/C6H6FN/c7-5-2-1-3-6(8)4-5/h1-4H,8H2",QZVQQUVWFIZUBQ-UHFFFAOYSA-N,?,188.0,101737
101738,372-20-3,372-20-3,Oc1cc(F)ccc1,M-FLUOROPHENOL,3-Fluorophenol,3-Fluorophenol,20787,DTXSID70190684,Oc1cc(F)ccc1,"InChI=1S/C6H5FO/c7-5-2-1-3-6(8)4-5/h1-4,8H",SJTBRFHBXDZMPS-UHFFFAOYSA-N,?,178.0,101738
101740,372-38-3,372-38-3,Fc1cc(F)cc(F)c1,"1,3,5-TRIFLUOROBENZENE","1,3,5-Trifluorobenzene","1,3,5-Trifluorobenzene",20789,DTXSID90190686,Fc1cc(F)cc(F)c1,InChI=1S/C6H3F3/c7-4-1-5(8)3-6(9)2-4/h1-3H,JXUKFFRPLNTYIV-UHFFFAOYSA-N,?,75.5,101740
101741,372-46-3,372-46-3,FC1CCCCC1,"Cyclohexane, fluoro-","Cyclohexane, fluoro-",Fluorocyclohexane,20790,DTXSID5059907,FC1CCCCC1,"InChI=1S/C6H11F/c7-6-4-2-1-3-5-6/h6H,1-5H2",GOBGVVAHHOUMDK-UHFFFAOYSA-N,?,101.0,101741
101742,372-47-4,372-47-4,Fc1c[n]ccc1,3-FLUOROPYRIDINE,3-Fluoropyridine,3-Fluoropyridine,20791,DTXSID10190688,Fc1c[n]ccc1,InChI=1S/C5H4FN/c6-5-2-1-3-7-4-5/h1-4H,CELKOWQJPVJKIL-UHFFFAOYSA-N,?,107.5,101742
101744,372-64-5,372-64-5,FC(F)(F)SSC(F)(F)F,"DISULFIDE, BIS(TRIFLUOROMETHYL)","Disulfide, bis(trifluoromethyl)",trifluoro-(trifluoromethyldisulfanyl)methane,20793,DTXSID4073172,FC(F)(F)SSC(F)(F)F,"InChI=1S/C2F6S2/c3-1(4,5)9-10-2(6,7)8",CGMFFOXAQVRUAZ-UHFFFAOYSA-N,?,34.6,101744
101745,373-14-8,373-14-8,CCCCCCF,1-FLUOROHEXANE,"Hexane, 1-fluoro-",1-FLUOROHEXANE,20794,DTXSID4059910,CCCCCCF,"InChI=1S/C6H13F/c1-2-3-4-5-6-7/h2-6H2,1H3",OFERIJCSHDJMSA-UHFFFAOYSA-N,?,91.5,101745
101746,373-44-4,373-44-4,NCCCCCCCCN,"1,8-OCTANEDIAMINE","1,8-Octanediamine","octane-1,8-diamine",20795,DTXSID9073173,NCCCCCCCCN,InChI=1S/C8H20N2/c9-7-5-3-1-2-4-6-8-10/h1-10H2,PWGJDPKCLMLPJW-UHFFFAOYSA-N,?,225.0,101746
101748,373-53-5,373-53-5,FCI,Fluoroiodomethane,PUBCHEM_13981373,CH2FI,20797,DTXSID00553763,FCI,InChI=1S/CH2FI/c2-1-3/h1H2,XGVXNTVBGYLJIR-UHFFFAOYSA-N,?,53.4,101748
101749,373-80-8,373-80-8,FC(F)(F)S(F)(F)(F)(F)F,"SULFUR, PENTAFLUORO(TRIFLUOROMETHYL)-, (OC-6-21)","Sulfur, pentafluoro(trifluoromethyl)-",,20798,DTXSID60190759,FC(F)(F)S(F)(F)(F)(F)F,"InChI=1S/CF8S/c2-1(3,4)10(5,6,7,8)9",QIYZKVMAFMDRTP-UHFFFAOYSA-N,?,-20.0,101749
101750,374-01-6,3539-97-7,C[C@H](O)C(F)(F)F,"1,1,1-TRIFLUORO-2-PROPANOL",3539-97-7,C3H5F3O,20799,DTXSID10426459,CC(O)C(F)(F)F,"InChI=1S/C3H5F3O/c1-2(7)3(4,5)6/h2,7H,1H3",GILIYJDBJZWGBG-UHFFFAOYSA-N,?,75.5,101750
101752,374-25-4,NOCAS_870521,C=CC(F)(Cl)C(F)(F)Br,"1-BUTENE, 4-BROMO-3-CHLORO-3,4,4-TRIFLUORO-",,,20801,DTXSID80870521,C=CC(F)(Cl)C(F)(F)Br,"InChI=1S/C4H3BrClF3/c1-2-3(6,7)4(5,8)9/h2H,1H2",VULPFOSLGWWARI-UHFFFAOYSA-N,?,99.5,101752
101754,374-76-5,374-76-5,FC(F)(F)C1(F)C(F)(F)C(F)(C(F)(F)C(F)(C1(F)F)C(F)(F)F)C(F)(F)F,"Perfluoro-1,3,5-trimethylcyclohexane",374-76-5,C9F18,20802,DTXSID80380039,FC(F)(F)C1(F)C(F)(F)C(F)(C(F)(F)C(F)(C1(F)F)C(F)(F)F)C(F)(F)F,"InChI=1S/C9F18/c10-1(7(19,20)21)4(13,14)2(11,8(22,23)24)6(17,18)3(12,5(1,15)16)9(25,26)27",MGOFOLPXKULBGG-UHFFFAOYSA-N,?,125.0,101754
101755,374-77-6,374-77-6,FC(F)(F)C1(F)C(F)(F)C(F)(F)C(F)(C(F)(F)C1(F)F)C(F)(F)F,"1,4-bis(trifluoromethyl)-decafluorocyclohexane",374-77-6,C8F16,20803,DTXSID90277906,FC(F)(F)C1(F)C(F)(F)C(F)(F)C(F)(C(F)(F)C1(F)F)C(F)(F)F,"InChI=1S/C8F16/c9-1(7(19,20)21)3(11,12)5(15,16)2(10,8(22,23)24)6(17,18)4(1,13)14",LYMIGLGNHPPIQP-UHFFFAOYSA-N,?,100.5,101755
101757,375-16-6,375-16-6,O=C(Cl)C(F)(F)C(F)(F)C(F)(F)F,"Butanoyl chloride, heptafluoro-","Butanoyl chloride, heptafluoro-","2,2,3,3,4,4,4-heptafluorobutanoyl chloride",20805,DTXSID9059915,O=C(Cl)C(F)(F)C(F)(F)C(F)(F)F,"InChI=1S/C4ClF7O/c5-1(13)2(6,7)3(8,9)4(10,11)12",WFELVFKXQJYPSL-UHFFFAOYSA-N,?,38.5,101757
101758,375-22-4,375-22-4,OC(=O)C(F)(F)C(F)(F)C(F)(F)F,"Butanoic acid, heptafluoro-",Heptafluorobutyric acid,"2,2,3,3,4,4,4-heptafluorobutanoic acid",20806,DTXSID4059916,OC(=O)C(F)(F)C(F)(F)C(F)(F)F,"InChI=1S/C4HF7O2/c5-2(6,1(12)13)3(7,8)4(9,10)11/h(H,12,13)",YPJUNDFVDDCYIH-UHFFFAOYSA-N,?,121.0,101758
101759,375-34-8,375-34-8,FC(F)(F)C(Cl)(Cl)C(Cl)(Cl)C(F)(F)F,"Butane, 2,2,3,3-tetrachlorohexafluoro-","Butane, 2,2,3,3-tetrachlorohexafluoro-","2,2,3,3-Tetrachloro-1,1,1,4,4,4-hexafluorobutane",20807,DTXSID70190947,FC(F)(F)C(Cl)(Cl)C(Cl)(Cl)C(F)(F)F,"InChI=1S/C4Cl4F6/c5-1(6,3(9,10)11)2(7,8)4(12,13)14",BZBLUUDREZEDDJ-UHFFFAOYSA-N,?,131.0,101759
101762,375-73-5,375-73-5,OS(=O)(=O)C(F)(F)C(F)(F)C(F)(F)C(F)(F)F,Perfluorobutane-1-sulfonic Acid,1-Perfluorobutanesulfonic acid,"1,1,2,2,3,3,4,4,4-nonafluorobutane-1-sulfonic acid",20809,DTXSID5030030,OS(=O)(=O)C(F)(F)C(F)(F)C(F)(F)C(F)(F)F,"InChI=1S/C4HF9O3S/c5-1(6,3(9,10)11)2(7,8)4(12,13)17(14,15)16/h(H,14,15,16)",JGTNAGYHADQMCM-UHFFFAOYSA-N,?,211.0,101762
101764,375-85-9,375-85-9,OC(=O)C(F)(F)C(F)(F)C(F)(F)C(F)(F)C(F)(F)C(F)(F)F,"Heptanoic acid, tridecafluoro-",Perfluoroheptanoic acid,tridecafluoroheptanoic acid,20810,DTXSID1037303,OC(=O)C(F)(F)C(F)(F)C(F)(F)C(F)(F)C(F)(F)C(F)(F)F,"InChI=1S/C7HF13O2/c8-2(9,1(21)22)3(10,11)4(12,13)5(14,15)6(16,17)7(18,19)20/h(H,21,22)",ZWBAMYVPMDSJGQ-UHFFFAOYSA-N,?,177.0,101764
101765,375-88-2,375-88-2,FC(F)(F)C(F)(F)C(F)(F)C(F)(F)C(F)(F)C(F)(F)C(F)(F)Br,"Heptane, 1-bromopentadecafluoro-","Heptane, 1-bromo-1,1,2,2,3,3,4,4,5,5,6,6,7,7,7-pentadecafluoro-","1-bromo-1,1,2,2,3,3,4,4,5,5,6,6,7,7,7-pentadecafluoroheptane",20811,DTXSID9059919,FC(F)(F)C(F)(F)C(F)(F)C(F)(F)C(F)(F)C(F)(F)C(F)(F)Br,"InChI=1S/C7BrF15/c8-6(19,20)4(15,16)2(11,12)1(9,10)3(13,14)5(17,18)7(21,22)23",VPQQZKWYZYVTMU-UHFFFAOYSA-N,?,118.0,101765
101767,376-27-2,376-27-2,COC(=O)C(F)(F)C(F)(F)C(F)(F)C(F)(F)C(F)(F)C(F)(F)C(F)(F)F,"Octanoic acid, pentadecafluoro-, methyl ester",Methyl perfluorooctanoate,"methyl 2,2,3,3,4,4,5,5,6,6,7,7,8,8,8-pentadecafluorooctanoate",20813,DTXSID8059924,COC(=O)C(F)(F)C(F)(F)C(F)(F)C(F)(F)C(F)(F)C(F)(F)C(F)(F)F,"InChI=1S/C9H3F15O2/c1-26-2(25)3(10,11)4(12,13)5(14,15)6(16,17)7(18,19)8(20,21)9(22,23)24/h1H3",XOCNYZFAMHDXJK-UHFFFAOYSA-N,?,158.0,101767
101768,376-68-1,376-68-1,O=C1OC(=O)C(F)(F)C(F)(F)C1(F)F,Hexafluoroglutaric anhydride,"3,3,4,4,5,5-Hexafluorodihydro-2H-pyran-2,6(3H)-dione","3,3,4,4,5,5-hexafluorooxane-2,6-dione",20814,DTXSID90191037,O=C1OC(=O)C(F)(F)C(F)(F)C1(F)F,"InChI=1S/C5F6O3/c6-3(7)1(12)14-2(13)4(8,9)5(3,10)11",IHYAGCYJVNHXCT-UHFFFAOYSA-N,?,72.0,101768
101769,378-75-6,378-75-6,COC(=O)C(F)(F)C(F)(F)F,"Propanoic acid, pentafluoro-, methyl ester",Methyl pentafluoropropionate,"methyl 2,2,3,3,3-pentafluoropropanoate",20815,DTXSID2059930,COC(=O)C(F)(F)C(F)(F)F,"InChI=1S/C4H3F5O2/c1-11-2(10)3(5,6)4(7,8)9/h1H3",JMKJCPUVEMZGEC-UHFFFAOYSA-N,?,59.5,101769
101771,381-73-7,381-73-7,OC(=O)C(F)F,"Acetic acid, difluoro-","Acetic acid, difluoro-","2,2-Difluoroacetic acid",20817,DTXSID2059932,OC(=O)C(F)F,"InChI=1S/C2H2F2O2/c3-1(4)2(5)6/h1H,(H,5,6)",PBWZKZYHONABLN-UHFFFAOYSA-N,?,133.0,101771
101772,382-21-8,382-21-8,FC(F)=C(C(F)(F)F)C(F)(F)F,Perfluoroisobutylene,"1-Propene, 1,1,3,3,3-pentafluoro-2-(trifluoromethyl)-","1,1,3,3,3-pentafluoro-2-(trifluoromethyl)prop-1-ene",20818,DTXSID4073176,FC(F)=C(C(F)(F)F)C(F)(F)F,"InChI=1S/C4F8/c5-2(6)1(3(7,8)9)4(10,11)12",DAFIBNSJXIGBQB-UHFFFAOYSA-N,?,0.5,101772
101773,382-28-5,382-28-5,FC(F)(F)N1C(F)(F)C(F)(F)OC(F)(F)C1(F)F,Perfluoro-4-methylmorpholine,"Morpholine, 2,2,3,3,5,5,6,6-octafluoro-4-(trifluoromethyl)-","2,2,3,3,5,5,6,6-Octafluoro-4-(trifluoromethyl)morpholine",20819,DTXSID7059933,FC(F)(F)N1C(F)(F)C(F)(F)OC(F)(F)C1(F)F,"InChI=1S/C5F11NO/c6-1(7)3(10,11)18-4(12,13)2(8,9)17(1)5(14,15)16",PQMAKJUXOOVROI-UHFFFAOYSA-N,?,51.0,101773
101775,383-63-1,383-63-1,CCOC(=O)C(F)(F)F,TRIFLUOROETHYL ACETATE,Ethyl trifluoroacetate,ethyl trifluoroacetate,20821,DTXSID8041959,CCOC(=O)C(F)(F)F,"InChI=1S/C4H5F3O2/c1-2-9-3(8)4(5,6)7/h2H2,1H3",STSCVKRWJPWALQ-UHFFFAOYSA-N,?,61.0,101775
101776,383-90-4,383-90-4,CN(C)B(F)N(C)C,"Boranediamine, 1-fluoro-N,N,N',N'-tetramethyl-","Boranediamine, 1-fluoro-N,N,N',N'-tetramethyl-",N-(dimethylamino-fluoroboranyl)-N-methylmethanamine,20822,DTXSID50191674,CN(C)B(F)N(C)C,InChI=1S/C4H12BFN2/c1-7(2)5(6)8(3)4/h1-4H3,CLSACQGNYHQMIT-UHFFFAOYSA-N,?,106.0,101776
101777,384-22-5,384-22-5,[O-][N+](=O)c1ccccc1C(F)(F)F,1-NO2 2-CF3 BENZENE,1-Nitro-2-(trifluoromethyl)benzene,1-nitro-2-(trifluoromethyl)benzene,20823,DTXSID4025793,[O-][N+](=O)c1ccccc1C(F)(F)F,"InChI=1S/C7H4F3NO2/c8-7(9,10)5-3-1-2-4-6(5)11(12)13/h1-4H",NDZJSUCUYPZXPR-UHFFFAOYSA-N,?,217.0,101777
101779,392-56-3,392-56-3,Fc1c(F)c(F)c(F)c(F)c1F,HEXAFLUOROBENZENE,Hexafluorobenzene,hexafluorobenzene,20825,DTXSID5043924,Fc1c(F)c(F)c(F)c(F)c1F,InChI=1S/C6F6/c7-1-2(8)4(10)6(12)5(11)3(1)9,ZQBFAOFFOQMSGJ-UHFFFAOYSA-N,?,80.2,101779
101780,392-83-6,392-83-6,FC(F)(F)c1ccccc1Br,"Benzene, 1-bromo-2-(trifluoromethyl)-","Benzene, 1-bromo-2-(trifluoromethyl)-",,20826,DTXSID7059939,FC(F)(F)c1ccccc1Br,"InChI=1S/C7H4BrF3/c8-6-4-2-1-3-5(6)7(9,10)11/h1-4H",RWXUNIMBRXGNEP-UHFFFAOYSA-N,?,167.5,101780
101781,392-85-8,392-85-8,Fc1ccccc1C(F)(F)F,1-FLUORO-2-TRIFLUOROMETHYLBENZENE,"Benzene, 1-fluoro-2-(trifluoromethyl)-",1-Fluoro-2-(trifluoromethyl)benzene,20827,DTXSID6059940,Fc1ccccc1C(F)(F)F,"InChI=1S/C7H4F4/c8-6-4-2-1-3-5(6)7(9,10)11/h1-4H",BGVGHYOIWIALFF-UHFFFAOYSA-N,?,114.5,101781
101783,398-23-2,398-23-2,Fc1ccc(cc1)-c1ccc(F)cc1,"4,4'-DIFLUOROBIPHENYL","4,4'-Difluorodiphenyl",1-fluoro-4-(4-fluorophenyl)benzene,20829,DTXSID20192870,Fc1ccc(cc1)-c1ccc(F)cc1,InChI=1S/C12H8F2/c13-11-5-1-9(2-6-11)10-3-7-12(14)8-4-10/h1-8H,PZDAAZQDQJGXSW-UHFFFAOYSA-N,?,254.5,101783
101784,400-52-2,400-52-2,CC(C)(C)OC(=O)C(F)(F)F,"ACETIC ACID, TRIFLUORO-, 1,1-DIMETHYLETHYL ESTER","Acetic acid, trifluoro-, 1,1-dimethylethyl ester","tert-butyl 2,2,2-trifluoroacetate",20830,DTXSID40193061,CC(C)(C)OC(=O)C(F)(F)F,"InChI=1S/C6H9F3O2/c1-5(2,3)11-4(10)6(7,8)9/h1-3H3",UQJLSMYQBOJUGG-UHFFFAOYSA-N,?,83.0,101784