ChemID,source_casrn,CAS,SMILES,NAME,preferred_name,iupac,MPID,dsstox_substance_id,Canonical_QSARr,InChI_Code_QSARr,InChI Key_QSARr,Salt_Solvent,BP,ID
102593,607-81-8,607-81-8,CCOC(=O)C(Cc1ccccc1)C(=O)OCC,"BENZYLMALONIC ACID, DIETHYL ESTER",Diethyl benzylmalonate,diethyl benzylpropanedioate,21597,DTXSID4022078,CCOC(=O)C(Cc1ccccc1)C(=O)OCC,"InChI=1S/C14H18O4/c1-3-17-13(15)12(14(16)18-4-2)10-11-8-6-5-7-9-11/h5-9,12H,3-4,10H2,1-2H3",ICZLTZWATFXDLP-UHFFFAOYSA-N,?,300.0,102593
102594,607-85-2,607-85-2,CC(C)OC(=O)c1ccccc1O,"Benzoic acid, 2-hydroxy-, 1-methylethyl ester","Benzoic acid, 2-hydroxy-, 1-methylethyl ester",propan-2-yl 2-hydroxybenzoate,21598,DTXSID1060556,CC(C)OC(=O)c1ccccc1O,"InChI=1S/C10H12O3/c1-7(2)13-10(12)8-5-3-4-6-9(8)11/h3-7,11H,1-2H3",YEULQIJMIOWCHB-UHFFFAOYSA-N,?,238.0,102594
102596,607-91-0,607-91-0,COc1cc(CC=C)cc2OCOc21,MYRISTICIN,Myristicin,"4-methoxy-6-(prop-2-en-1-yl)-1,3-benzodioxole",21600,DTXSID1025693,COc1cc(CC=C)cc2OCOc21,"InChI=1S/C11H12O3/c1-3-4-8-5-9(12-2)11-10(6-8)13-7-14-11/h3,5-6H,1,4,7H2,2H3",BNWJOHGLIBDBOB-UHFFFAOYSA-N,?,276.5,102596
102597,607-97-6,NOCAS_862285,CC(=O)C(CC)C(=O)OCC,"Butanoic acid, 2-ethyl-3-oxo-, ethyl ester",,,21601,DTXSID40862285,CC(=O)C(CC)C(=O)OCC,"InChI=1S/C8H14O3/c1-4-7(6(3)9)8(10)11-5-2/h7H,4-5H2,1-3H3",OKANYBNORCUPKZ-UHFFFAOYSA-N,?,198.0,102597
102598,607-99-8,607-99-8,COc1c(Br)cc(Br)cc1Br,"2,4,6-TRIBROMOANISOLE","2,4,6-Tribromoanisole","1,3,5-tribromo-2-methoxybenzene",21602,DTXSID1060558,COc1c(Br)cc(Br)cc1Br,"InChI=1S/C7H5Br3O/c1-11-7-5(9)2-4(8)3-6(7)10/h2-3H,1H3",YXTRCOAFNXQTKL-UHFFFAOYSA-N,?,298.0,102598
102600,608-26-4|615-74-7,615-74-7,Cc1ccc(Cl)c(O)c1,"5-METHYL-2-CHLOROPHENOL, PHENOL, 2-CHLORO-5-METHYL-",2-Chloro-5-methylphenol,2-chloro-5-methylphenol,21604|21704,DTXSID1046558,Cc1ccc(Cl)c(O)c1,"InChI=1S/C7H7ClO/c1-5-2-3-6(8)7(9)4-5/h2-4,9H,1H3",SMFHPCZZAAMJJO-UHFFFAOYSA-N,?,213.0,102600
102601,608-27-5,608-27-5,Nc1cccc(Cl)c1Cl,"2,3-DICHLOROANILINE","2,3-Dichloroaniline","2,3-dichloroaniline",21605,DTXSID8040696,Nc1cccc(Cl)c1Cl,"InChI=1S/C6H5Cl2N/c7-4-2-1-3-5(9)6(4)8/h1-3H,9H2",BRPSAOUFIJSKOT-UHFFFAOYSA-N,?,252.0,102601
102602,608-28-6,608-28-6,Cc1cccc(C)c1I,"Benzene, 2-iodo-1,3-dimethyl-","Benzene, 2-iodo-1,3-dimethyl-","2-iodo-1,3-dimethylbenzene",21606,DTXSID5060560,Cc1cccc(C)c1I,"InChI=1S/C8H9I/c1-6-4-3-5-7(2)8(6)9/h3-5H,1-2H3",QTUGGVBKWIYQSS-UHFFFAOYSA-N,?,229.5,102602
102604,608-32-2,NOCAS_870677,Nc1c(N)cccc1N,"1,2,3-TRIAMINOBENZENE",,,21608,DTXSID30870677,Nc1c(N)cccc1N,"InChI=1S/C6H9N3/c7-4-2-1-3-5(8)6(4)9/h1-3H,7-9H2",RUOKPLVTMFHRJE-UHFFFAOYSA-N,?,336.0,102604
102605,608-33-3,608-33-3,Oc1c(Br)cccc1Br,"2,6-DIBROMOPHENOL","Phenol, 2,6-dibromo-","2,6-Dibromophenol",21609,DTXSID0060561,Oc1c(Br)cccc1Br,"InChI=1S/C6H4Br2O/c7-4-2-1-3-5(8)6(4)9/h1-3,9H",SSIZLKDLDKIHEV-UHFFFAOYSA-N,?,255.0,102605
102606,608-50-4,608-50-4,Cc1c(c(C)cc(C)c1[N+]([O-])=O)[N+]([O-])=O,"BENZENE, 1,3,5-TRIMETHYL-2,4-DINITRO-","2,4-Dinitromesitylene","1,3,5-trimethyl-2,4-dinitrobenzene",21610,DTXSID30209645,Cc1c(c(C)cc(C)c1[N+]([O-])=O)[N+]([O-])=O,"InChI=1S/C9H10N2O4/c1-5-4-6(2)9(11(14)15)7(3)8(5)10(12)13/h4H,1-3H3",OFMLQCPPVSVIDD-UHFFFAOYSA-N,?,418.0,102606
102608,609-02-9,609-02-9,CC(C(=O)OC)C(=O)OC,"Propanedioic acid, methyl-, dimethyl ester","Propanedioic acid, methyl-, dimethyl ester",dimethyl 2-methylpropanedioate,21612,DTXSID5060564,CC(C(=O)OC)C(=O)OC,"InChI=1S/C6H10O4/c1-4(5(7)9-2)6(8)10-3/h4H,1-3H3",LRBPFPZTIZSOGG-UHFFFAOYSA-N,?,174.0,102608
102609,609-08-5,609-08-5,CC(C(=O)OCC)C(=O)OCC,"Propanedioic acid, methyl-, diethyl ester","Propanedioic acid, methyl-, diethyl ester",diethyl 2-methylpropanedioate,21613,DTXSID0060565,CC(C(=O)OCC)C(=O)OCC,"InChI=1S/C8H14O4/c1-4-11-7(9)6(3)8(10)12-5-2/h6H,4-5H2,1-3H3",UPQZOUHVTJNGFK-UHFFFAOYSA-N,?,201.0,102609
102610,609-09-6,609-09-6,CCOC(=O)C(=O)C(=O)OCC,"Propanedioic acid, oxo-, diethyl ester","Propanedioic acid, oxo-, diethyl ester",diethyl 2-oxopropanedioate,21614,DTXSID5060566,CCOC(=O)C(=O)C(=O)OCC,"InChI=1S/C7H10O5/c1-3-11-6(9)5(8)7(10)12-4-2/h3-4H2,1-2H3",DBKKFIIYQGGHJO-UHFFFAOYSA-N,?,210.0,102610
102612,609-14-3,609-14-3,CC(=O)C(C)C(=O)OCC,"Butanoic acid, 2-methyl-3-oxo-, ethyl ester",Ethyl-2-methyl acetoacetate,ethyl 2-methyl-3-oxobutanoate,21616,DTXSID2033493,CC(=O)C(C)C(=O)OCC,"InChI=1S/C7H12O3/c1-4-10-7(9)5(2)6(3)8/h5H,4H2,1-3H3",FNENWZWNOPCZGK-UHFFFAOYSA-N,?,187.0,102612
102613,609-19-8,609-19-8,Oc1cc(Cl)c(Cl)c(Cl)c1,"3,4,5-TRICHLOROPHENOL","3,4,5-Trichlorophenol",C6H3Cl3O,21617,DTXSID4026212,Oc1cc(Cl)c(Cl)c(Cl)c1,"InChI=1S/C6H3Cl3O/c7-4-1-3(10)2-5(8)6(4)9/h1-2,10H",GBNHEBQXJVDXSW-UHFFFAOYSA-N,?,275.0,102613
102614,609-26-7,68333-81-3,CC(C)C(CC)CC,2-METHYL-3-ETHYLPENTANE,"Alkanes, C4-12",3-ethyl-2-methylpentane,21618,DTXSID5029429,CC(C)C(CC)CC,"InChI=1S/C8H18/c1-5-8(6-2)7(3)4/h7-8H,5-6H2,1-4H3",DUPUVYJQZSLSJB-UHFFFAOYSA-N,?,115.6,102614
102616,609-65-4,609-65-4,O=C(Cl)c1ccccc1Cl,"Benzoyl chloride, 2-chloro-","Benzoyl chloride, 2-chloro-",2-Chlorobenzoyl chloride,21620,DTXSID9060572,O=C(Cl)c1ccccc1Cl,InChI=1S/C7H4Cl2O/c8-6-4-2-1-3-5(6)7(9)10/h1-4H,ONIKNECPXCLUHT-UHFFFAOYSA-N,?,238.0,102616
102617,609-72-3,609-72-3,Cc1ccccc1N(C)C,"N,N-DIMETHYL-O-TOLUIDINE","N,N,2-Trimethylaniline","N,N,2-trimethylaniline",21621,DTXSID8052279,Cc1ccccc1N(C)C,"InChI=1S/C9H13N/c1-8-6-4-5-7-9(8)10(2)3/h4-7H,1-3H3",JDEJGVSZUIJWBM-UHFFFAOYSA-N,?,194.1,102617
102618,609-73-4,609-73-4,[O-][N+](=O)c1ccccc1I,"Benzene, 1-iodo-2-nitro-","Benzene, 1-iodo-2-nitro-",1-Iodo-2-nitrobenzene,21622,DTXSID9060574,[O-][N+](=O)c1ccccc1I,InChI=1S/C6H4INO2/c7-5-3-1-2-4-6(5)8(9)10/h1-4H,JXMZUNPWVXQADG-UHFFFAOYSA-N,?,290.0,102618
102620,610-25-3,610-25-3,Cc1cc(c(cc1[N+]([O-])=O)[N+]([O-])=O)[N+]([O-])=O,"BENZENE, 1-METHYL-2,4,5-TRINITRO-","2,4,5-Trinitrotoluene","1-methyl-2,4,5-trinitrobenzene",21624,DTXSID40209853,Cc1cc(c(cc1[N+]([O-])=O)[N+]([O-])=O)[N+]([O-])=O,"InChI=1S/C7H5N3O6/c1-4-2-6(9(13)14)7(10(15)16)3-5(4)8(11)12/h2-3H,1H3",FZJGZCSVWGKDAK-UHFFFAOYSA-N,?,300.0,102620
102621,610-34-4,610-34-4,CCOC(=O)c1ccccc1[N+]([O-])=O,Ethyl 2-nitrobenzoate,Ethyl 2-nitrobenzoate,Ethyl 2-nitrobenzoate,21625,DTXSID60209855,CCOC(=O)c1ccccc1[N+]([O-])=O,"InChI=1S/C9H9NO4/c1-2-14-9(11)7-5-3-4-6-8(7)10(12)13/h3-6H,2H2,1H3",CPNMAYYYYSWTIV-UHFFFAOYSA-N,?,275.0,102621
102622,610-39-9,610-39-9,Cc1cc(c(cc1)[N+]([O-])=O)[N+]([O-])=O,"1,2-DINO2 4-METHYL BENZENE","3,4-Dinitrotoluene","4-methyl-1,2-dinitrobenzene",21626,DTXSID8027240,Cc1cc(c(cc1)[N+]([O-])=O)[N+]([O-])=O,"InChI=1S/C7H6N2O4/c1-5-2-3-6(8(10)11)7(4-5)9(12)13/h2-4H,1H3",INYDMNPNDHRJQJ-UHFFFAOYSA-N,?,284.0,102622
102624,610-89-9,NOCAS_870683,CC(=O)C(CC=C)C(=O)OCC,"4-Pentenoic acid, 2-acetyl-, ethyl ester",,,21628,DTXSID40870683,CC(=O)C(CC=C)C(=O)OCC,"InChI=1S/C9H14O3/c1-4-6-8(7(3)10)9(11)12-5-2/h4,8H,1,5-6H2,2-3H3",IXKFNTFJUHTDNE-UHFFFAOYSA-N,?,208.0,102624
102625,610-91-3,610-91-3,Cc1cc(c(C)cc1C)[N+]([O-])=O,"1,3,4-Trimethyl-6-nitrobenzene","1,2,4-Trimethyl-5-nitrobenzene","1,2,4-Trimethyl-5-nitrobenzene",21629,DTXSID70209866,Cc1cc(c(C)cc1C)[N+]([O-])=O,"InChI=1S/C9H11NO2/c1-6-4-8(3)9(10(11)12)5-7(6)2/h4-5H,1-3H3",WILMQVBUVCETSB-UHFFFAOYSA-N,?,265.0,102625
102626,610-94-6,610-94-6,COC(=O)c1ccccc1Br,METHYL 2-BROMOBENZOATE,"Benzoic acid, 2-bromo-, methyl ester",Methyl 2-bromobenzoate,21630,DTXSID2060593,COC(=O)c1ccccc1Br,"InChI=1S/C8H7BrO2/c1-11-8(10)6-4-2-3-5-7(6)9/h2-5H,1H3",SWGQITQOBPXVRC-UHFFFAOYSA-N,?,252.0,102626
102628,611-01-8,611-01-8,Cc1ccc(C(O)=O)c(C)c1,"Benzoic acid, 2,4-dimethyl-","Benzoic acid, 2,4-dimethyl-","2,4-DIMETHYLBENZOIC ACID",21632,DTXSID2060595,Cc1ccc(C(O)=O)c(C)c1,"InChI=1S/C9H10O2/c1-6-3-4-8(9(10)11)7(2)5-6/h3-5H,1-2H3,(H,10,11)",BKYWPNROPGQIFZ-UHFFFAOYSA-N,?,268.0,102628
102629,611-06-3,611-06-3,[O-][N+](=O)c1ccc(Cl)cc1Cl,"2,4-DICHLORONITROBENZENE","2,4-Dichloronitrobenzene","2,4-dichloro-1-nitrobenzene",21633,DTXSID3024998,[O-][N+](=O)c1ccc(Cl)cc1Cl,InChI=1S/C6H3Cl2NO2/c7-4-1-2-6(9(10)11)5(8)3-4/h1-3H,QUIMTLZDMCNYGY-UHFFFAOYSA-N,?,258.5,102629
102630,611-10-9,NOCAS_871790,CCOC(=O)C1CCCC1=O,"CYCLOPENTANECARBOXYLIC ACID, 2-OXO-, ETHYL ESTER",,,21634,DTXSID80871790,CCOC(=O)C1CCCC1=O,"InChI=1S/C8H12O3/c1-2-11-8(10)6-4-3-5-7(6)9/h6H,2-5H2,1H3",JHZPNBKZPAWCJD-UHFFFAOYSA-N,?,221.0,102630
102632,611-14-3,611-14-3,Cc1ccccc1CC,1-ETHYL-2-METHYLBENZENE,1-Ethyl-2-methylbenzene,1-ethyl-2-methylbenzene,21636,DTXSID2050403,Cc1ccccc1CC,"InChI=1S/C9H12/c1-3-9-7-5-4-6-8(9)2/h4-7H,3H2,1-2H3",HYFLWBNQFMXCPA-UHFFFAOYSA-N,?,165.2,102632
102633,611-15-4,611-15-4,Cc1ccccc1C=C,O-METHYLSTYRENE,o-Vinyltoluene,1-Ethenyl-2-methylbenzene,21637,DTXSID2060599,Cc1ccccc1C=C,"InChI=1S/C9H10/c1-3-9-7-5-4-6-8(9)2/h3-7H,1H2,2H3",NVZWEEGUWXZOKI-UHFFFAOYSA-N,?,169.8,102633
102634,611-19-8,611-19-8,Clc1ccccc1CCl,"Benzene, 1-chloro-2-(chloromethyl)-",2-Chlorobenzyl chloride,1-chloro-2-(chloromethyl)benzene,21638,DTXSID3027241,Clc1ccccc1CCl,"InChI=1S/C7H6Cl2/c8-5-6-3-1-2-4-7(6)9/h1-4H,5H2",BASMANVIUSSIIM-UHFFFAOYSA-N,?,217.0,102634
102636,611-32-5,611-32-5,Cc1cccc2ccc[n]c21,8-METHYLQUINOLINE,8-Methylquinoline,8-methylquinoline,21640,DTXSID8020888,Cc1cccc2ccc[n]c21,"InChI=1S/C10H9N/c1-8-4-2-5-9-6-3-7-11-10(8)9/h2-7H,1H3",JRLTTZUODKEYDH-UHFFFAOYSA-N,?,247.5,102636
102637,611-33-6,611-33-6,Clc1cccc2ccc[n]c21,8-CHLOROQUINOLINE,"Quinoline, 8-chloro-",8-Chloroquinoline,21641,DTXSID9060601,Clc1cccc2ccc[n]c21,InChI=1S/C9H6ClN/c10-8-5-1-3-7-4-2-6-11-9(7)8/h1-6H,RUSMDMDNFUYZTM-UHFFFAOYSA-N,?,288.5,102637
102638,611-34-7,611-34-7,Nc1cccc2[n]cccc21,5-AMINOQUINOLINE,5-Aminoquinoline,quinolin-5-amine,21642,DTXSID80209978,Nc1cccc2[n]cccc21,"InChI=1S/C9H8N2/c10-8-4-1-5-9-7(8)3-2-6-11-9/h1-6H,10H2",XMIAFAKRAAMSGX-UHFFFAOYSA-N,?,310.0,102638
102640,611-43-8,611-43-8,Cc1cc(ccc1)-c1ccccc1C,"1,1'-BIPHENYL, 2,3'-DIMETHYL-","1,1'-Biphenyl, 2,3'-dimethyl-",1-methyl-2-(3-methylphenyl)benzene,21644,DTXSID30209983,Cc1cc(ccc1)-c1ccccc1C,"InChI=1S/C14H14/c1-11-6-5-8-13(10-11)14-9-4-3-7-12(14)2/h3-10H,1-2H3",UZQLBACCROFUKQ-UHFFFAOYSA-N,?,270.0,102640
102641,611-45-0,NOCAS_870686,C(c1cccc2ccccc21)c1ccccc1,"NAPHTHALENE, 1-(PHENYLMETHYL)-",,,21645,DTXSID20870686,C(c1cccc2ccccc21)c1ccccc1,"InChI=1S/C17H14/c1-2-7-14(8-3-1)13-16-11-6-10-15-9-4-5-12-17(15)16/h1-12H,13H2",KTHUKEZOIFYPEH-UHFFFAOYSA-N,?,350.0,102641
102643,611-70-1,611-70-1,CC(C)C(=O)c1ccccc1,"1-PROPANONE, 2-METHYL-1-PHENYL-",Isopropyl phenyl ketone,2-methyl-1-phenylpropan-1-one,21646,DTXSID6048202,CC(C)C(=O)c1ccccc1,"InChI=1S/C10H12O/c1-8(2)10(11)9-6-4-3-5-7-9/h3-8H,1-2H3",BSMGLVDZZMBWQB-UHFFFAOYSA-N,?,220.0,102643
102645,611-94-9,611-94-9,COc1ccc(cc1)C(=O)c1ccccc1,"METHANONE, (4-METHOXYPHENYL)PHENYL-",4-Methoxybenzophenone,(4-methoxyphenyl)-phenylmethanone,21648,DTXSID00209995,COc1ccc(cc1)C(=O)c1ccccc1,"InChI=1S/C14H12O2/c1-16-13-9-7-12(8-10-13)14(15)11-5-3-2-4-6-11/h2-10H,1H3",SWFHGTMLYIBPPA-UHFFFAOYSA-N,?,355.0,102645
102646,611-97-2,611-97-2,Cc1ccc(cc1)C(=O)c1ccc(C)cc1,"Methanone, bis(4-methylphenyl)-","Methanone, bis(4-methylphenyl)-",bis(4-methylphenyl)methanone,21649,DTXSID9060603,Cc1ccc(cc1)C(=O)c1ccc(C)cc1,"InChI=1S/C15H14O/c1-11-3-7-13(8-4-11)15(16)14-9-5-12(2)6-10-14/h3-10H,1-2H3",ZWPWLKXZYNXATK-UHFFFAOYSA-N,?,334.0,102646
102647,612-00-0,612-00-0,CC(c1ccccc1)c1ccccc1,"1,1-DIPHENYLETHANE","1,1-Diphenylethane","1,1'-ethane-1,1-diyldibenzene",21650,DTXSID6041218,CC(c1ccccc1)c1ccccc1,"InChI=1S/C14H14/c1-12(13-8-4-2-5-9-13)14-10-6-3-7-11-14/h2-12H,1H3",BSZXAFXFTLXUFV-UHFFFAOYSA-N,?,272.6,102647
102649,612-13-5,612-13-5,N#Cc1ccccc1CCl,2-Cyanobenzyl chloride,"Benzonitrile, 2-(chloromethyl)- (9CI)",2-(Chloromethyl)benzonitrile,21652,DTXSID70210098,N#Cc1ccccc1CCl,"InChI=1S/C8H6ClN/c9-5-7-3-1-2-4-8(7)6-10/h1-4H,5H2",ZSHNOXOGXHXLAV-UHFFFAOYSA-N,?,252.0,102649
102650,612-15-7,612-15-7,COc1ccccc1C=C,"Benzene, 1-ethenyl-2-methoxy-","Benzene, 1-ethenyl-2-methoxy-",1-Ethenyl-2-methoxybenzene,21653,DTXSID9060605,COc1ccccc1C=C,"InChI=1S/C9H10O/c1-3-8-6-4-5-7-9(8)10-2/h3-7H,1H2,2H3",SFBTTWXNCQVIEC-UHFFFAOYSA-N,?,197.0,102650
102651,612-16-8,612-16-8,COc1ccccc1CO,O-METHOXYBENZYL ALCOHOL,"Benzenemethanol, 2-methoxy-",(2-methoxyphenyl)methanol,21654,DTXSID4060606,COc1ccccc1CO,"InChI=1S/C8H10O2/c1-10-8-5-3-2-4-7(8)6-9/h2-5,9H,6H2,1H3",WYLYBQSHRJMURN-UHFFFAOYSA-N,?,249.0,102651
102653,612-22-6,612-22-6,CCc1ccccc1[N+]([O-])=O,2-ETHYLNITROBENZENE,"Benzene, 1-ethyl-2-nitro-",1-Ethyl-2-nitrobenzene,21656,DTXSID4073209,CCc1ccccc1[N+]([O-])=O,"InChI=1S/C8H9NO2/c1-2-7-5-3-4-6-8(7)9(10)11/h3-6H,2H2,1H3",PXWYZLWEKCMTEZ-UHFFFAOYSA-N,?,232.5,102653
102654,612-25-9,612-25-9,[O-][N+](=O)c1ccccc1CO,2-NITROBENZYL ALCOHOL,2-Nitrobenzyl alcohol,,21657,DTXSID40210101,[O-][N+](=O)c1ccccc1CO,"InChI=1S/C7H7NO3/c9-5-6-3-1-2-4-7(6)8(10)11/h1-4,9H,5H2",BWRBVBFLFQKBPT-UHFFFAOYSA-N,?,270.0,102654
102655,612-57-7,612-57-7,Clc1cc2ccc[n]c2cc1,6-CHLOROQUINOLINE,"Quinoline, 6-chloro-",6-Chloroquinoline,21658,DTXSID3060611,Clc1cc2ccc[n]c2cc1,InChI=1S/C9H6ClN/c10-8-3-4-9-7(6-8)2-1-5-11-9/h1-6H,GKJSZXGYFJBYRQ-UHFFFAOYSA-N,?,263.0,102655
102657,612-60-2,612-60-2,Cc1cc2[n]cccc2cc1,7-METHYLQUINOLINE,7-Methylquinoline,7-methylquinoline,21660,DTXSID5025657,Cc1cc2[n]cccc2cc1,"InChI=1S/C10H9N/c1-8-4-5-9-3-2-6-11-10(9)7-8/h2-7H,1H3",KDYVCOSVYOSHOL-UHFFFAOYSA-N,?,257.6,102657
102658,612-62-4,612-62-4,Clc1ccc2ccccc2[n]1,2-CHLOROQUINOLINE,"Quinoline, 2-chloro-",2-Chloroquinoline,21661,DTXSID8060612,Clc1ccc2ccccc2[n]1,InChI=1S/C9H6ClN/c10-9-6-5-7-3-1-2-4-8(7)11-9/h1-6H,OFUFXTHGZWIDDB-UHFFFAOYSA-N,?,266.0,102658
102659,612-71-5,612-71-5,c1c(cc(cc1-c1ccccc1)-c1ccccc1)-c1ccccc1,"5'-PHENYL-1,1':3',1""-TERPHENYL","1,1':3',1''-Terphenyl, 5'-phenyl-","1,3,5-tri(phenyl)benzene",21662,DTXSID9073917,c1c(cc(cc1-c1ccccc1)-c1ccccc1)-c1ccccc1,InChI=1S/C24H18/c1-4-10-19(11-5-1)22-16-23(20-12-6-2-7-13-20)18-24(17-22)21-14-8-3-9-15-21/h1-18H,SXWIAEOZZQADEY-UHFFFAOYSA-N,?,462.0,102659
102661,612-78-2,612-78-2,c1c(ccc2ccccc21)-c1cc2ccccc2cc1,"2,2'-BINAPHTHALENE","2,2'-Binaphthyl",2-naphthalen-2-ylnaphthalene,21664,DTXSID50210112,c1c(ccc2ccccc21)-c1cc2ccccc2cc1,InChI=1S/C20H14/c1-3-7-17-13-19(11-9-15(17)5-1)20-12-10-16-6-2-4-8-18(16)14-20/h1-14H,MSBVBOUOMVTWKE-UHFFFAOYSA-N,?,452.0,102661
102662,612-94-2,612-94-2,c1c(ccc2ccccc21)-c1ccccc1,"NAPHTHALENE, 2-PHENYL-",2-Phenylnaphthalene,2-PHENYLNAPHTHALENE,21665,DTXSID8060614,c1c(ccc2ccccc21)-c1ccccc1,InChI=1S/C16H12/c1-2-6-13(7-3-1)16-11-10-14-8-4-5-9-15(14)12-16/h1-12H,TURIHPLQSRVWHU-UHFFFAOYSA-N,?,345.5,102662
102663,612-96-4,612-96-4,c1cc([n]c2ccccc21)-c1ccccc1,2-PHENYLQUINOLINE,2-Phenylquinoline,2-Phenylquinoline,21666,DTXSID30210115,c1cc([n]c2ccccc21)-c1ccccc1,InChI=1S/C15H11N/c1-2-6-12(7-3-1)15-11-10-13-8-4-5-9-14(13)16-15/h1-11H,FSEXLNMNADBYJU-UHFFFAOYSA-N,?,363.0,102663
102665,613-29-6,613-29-6,CCCCN(CCCC)c1ccccc1,"Benzenamine, N,N-dibutyl-","Benzenamine, N,N-dibutyl-","N,N-Dibutylaniline",21668,DTXSID8060618,CCCCN(CCCC)c1ccccc1,"InChI=1S/C14H23N/c1-3-5-12-15(13-6-4-2)14-10-8-7-9-11-14/h7-11H,3-6,12-13H2,1-2H3",FZPXKEPZZOEPGX-UHFFFAOYSA-N,?,274.8,102665
102666,613-31-0,613-31-0,C1c2ccccc2Cc2ccccc21,"9,10-DIHYDROANTHRACENE","Anthracene, 9,10-dihydro-","9,10-Dihydroanthracene",21669,DTXSID3075256,C1c2ccccc2Cc2ccccc21,"InChI=1S/C14H12/c1-2-6-12-10-14-8-4-3-7-13(14)9-11(12)5-1/h1-8H,9-10H2",WPDAVTSOEQEGMS-UHFFFAOYSA-N,?,305.0,102666
102668,613-45-6,613-45-6,COc1cc(ccc1C=O)OC,"2,4-DIMETHOXYBENZALDEHYD","2,4-Dimethoxybenzaldehyde","2,4-dimethoxybenzaldehyde",21670,DTXSID3022081,COc1cc(ccc1C=O)OC,"InChI=1S/C9H10O3/c1-11-8-4-3-7(6-10)9(5-8)12-2/h3-6H,1-2H3",LWRSYTXEQUUTKW-UHFFFAOYSA-N,?,290.0,102668
102670,613-48-9,613-48-9,Cc1ccc(cc1)N(CC)CC,"Benzenamine, N,N-diethyl-4-methyl-","Benzenamine, N,N-diethyl-4-methyl-","N,N-Diethyl-4-methylaniline",21672,DTXSID2060622,Cc1ccc(cc1)N(CC)CC,"InChI=1S/C11H17N/c1-4-12(5-2)11-8-6-10(3)7-9-11/h6-9H,4-5H2,1-3H3",HKJNHYJTVPWVGV-UHFFFAOYSA-N,?,229.0,102670
102671,613-59-2,613-59-2,C(c1cc2ccccc2cc1)c1ccccc1,"NAPHTHALENE, 2-(PHENYLMETHYL)-","Naphthalene, 2-benzyl- (8CI)",2-(Phenylmethyl)naphthalene,21673,DTXSID20210200,C(c1cc2ccccc2cc1)c1ccccc1,"InChI=1S/C17H14/c1-2-6-14(7-3-1)12-15-10-11-16-8-4-5-9-17(16)13-15/h1-11,13H,12H2",JASHTKAXQWIZGF-UHFFFAOYSA-N,?,350.0,102671
102672,613-69-4,613-69-4,CCOc1ccccc1C=O,"Benzaldehyde, 2-ethoxy-","Benzaldehyde, 2-ethoxy-",2-Ethoxybenzaldehyde,21674,DTXSID2060624,CCOc1ccccc1C=O,"InChI=1S/C9H10O2/c1-2-11-9-6-4-3-5-8(9)7-10/h3-7H,2H2,1H3",DUVJMSPTZMCSTQ-UHFFFAOYSA-N,?,248.0,102672
102674,613-84-3,613-84-3,Cc1cc(C=O)c(O)cc1,"Benzaldehyde, 2-hydroxy-5-methyl-","Benzaldehyde, 2-hydroxy-5-methyl-",2-Hydroxy-5-methylbenzaldehyde,21676,DTXSID7060625,Cc1cc(C=O)c(O)cc1,"InChI=1S/C8H8O2/c1-6-2-3-8(10)7(4-6)5-9/h2-5,10H,1H3",ILEIUTCVWLYZOM-UHFFFAOYSA-N,?,217.5,102674
102676,613-90-1,613-90-1,N#CC(=O)c1ccccc1,"Benzeneacetonitrile, .alpha.-oxo-","Benzeneacetonitrile, .alpha.-oxo-",BENZOYL CYANIDE,21677,DTXSID2060626,N#CC(=O)c1ccccc1,InChI=1S/C8H5NO/c9-6-8(10)7-4-2-1-3-5-7/h1-5H,GJQBHOAJJGIPRH-UHFFFAOYSA-N,?,206.0,102676
102677,613-91-2,613-91-2,CC(=NO)c1ccccc1,"Ethanone, 1-phenyl-, oxime","Ethanone, 1-phenyl-, oxime",,21678,DTXSID7060627,CC(N=O)c1ccccc1,"InChI=1S/C8H9NO/c1-7(9-10)8-5-3-2-4-6-8/h2-7H,1H3",DKCIKFUVZULJCJ-UHFFFAOYSA-N,?,245.0,102677
102679,613-97-8,613-97-8,CCN(C)c1ccccc1,"Benzenamine, N-ethyl-N-methyl-","Benzenamine, N-ethyl-N-methyl-",N-Ethyl-N-methylaniline,21680,DTXSID2060628,CCN(C)c1ccccc1,"InChI=1S/C9H13N/c1-3-10(2)9-7-5-4-6-8-9/h4-8H,3H2,1-2H3",PPHQUIPUBYPZLD-UHFFFAOYSA-N,?,204.0,102679
102680,614-18-6,614-18-6,CCOC(=O)c1ccc[n]c1,"NICOTINIC ACID, ETHYL ESTER",Ethyl nicotinate,ethyl pyridine-3-carboxylate,21681,DTXSID9046526,CCOC(=O)c1ccc[n]c1,"InChI=1S/C8H9NO2/c1-2-11-8(10)7-4-3-5-9-6-7/h3-6H,2H2,1H3",XBLVHTDFJBKJLG-UHFFFAOYSA-N,?,224.0,102680
102681,614-34-6,614-34-6,Cc1ccc(cc1)OC(=O)c1ccccc1,"Benzoic acid, 4-methylphenyl ester",p-Tolyl benzoate,(4-methylphenyl) benzoate,21682,DTXSID6060632,Cc1ccc(cc1)OC(=O)c1ccccc1,"InChI=1S/C14H12O2/c1-11-7-9-13(10-8-11)16-14(15)12-5-3-2-4-6-12/h2-10H,1H3",LLRZUDIHEZXFGV-UHFFFAOYSA-N,?,316.0,102681
102683,614-71-1,614-71-1,Cc1ccccc1OCC,"BENZENE, 1-ETHOXY-2-METHYL-","Benzene, 1-ethoxy-2-methyl-",1-ethoxy-2-methylbenzene,21684,DTXSID80210327,Cc1ccccc1OCC,"InChI=1S/C9H12O/c1-3-10-9-7-5-4-6-8(9)2/h4-7H,3H2,1-2H3",JWMKUKRBNODZFA-UHFFFAOYSA-N,?,184.0,102683
102684,614-72-2,614-72-2,CCOc1ccccc1Cl,"BENZENE, 1-CHLORO-2-ETHOXY-",1-Chloro-2-ethoxybenzene,1-Chloro-2-ethoxybenzene,21685,DTXSID40210328,CCOc1ccccc1Cl,"InChI=1S/C8H9ClO/c1-2-10-8-6-4-3-5-7(8)9/h3-6H,2H2,1H3",IRYSAAMKXPLGAM-UHFFFAOYSA-N,?,210.0,102684
102685,614-75-5,614-75-5,Oc1ccccc1CC(O)=O,O-HYDROXYPHENYLACETIC ACID,2-Hydroxyphenylacetic acid,2-(2-hydroxyphenyl)acetic acid,21686,DTXSID1060633,Oc1ccccc1CC(O)=O,"InChI=1S/C8H8O3/c9-7-4-2-1-3-6(7)5-8(10)11/h1-4,9H,5H2,(H,10,11)",CCVYRRGZDBSHFU-UHFFFAOYSA-N,?,240.0,102685
102687,614-99-3,614-99-3,CCOC(=O)c1ccco1,"FUROIC ACID, ETHYL ESTER","2-Furancarboxylic acid, ethyl ester",Ethyl furan-2-carboxylate,21688,DTXSID0060640,CCOC(=O)c1ccco1,"InChI=1S/C7H8O3/c1-2-9-7(8)6-4-3-5-10-6/h3-5H,2H2,1H3",NHXSTXWKZVAVOQ-UHFFFAOYSA-N,?,196.8,102687
102688,615-05-4,615-05-4,COc1ccc(N)cc1N,"2,4 DIAMINOANISOLE","2,4-Diaminoanisole","4-methoxybenzene-1,3-diamine",21689,DTXSID5041358,COc1ccc(N)cc1N,"InChI=1S/C7H10N2O/c1-10-7-3-2-5(8)4-6(7)9/h2-4H,8-9H2,1H3",BAHPQISAXRFLCL-UHFFFAOYSA-N,?,221.0,102688
102689,615-18-9,615-18-9,Clc1[n]c2ccccc2o1,"Benzoxazole, 2-chloro-","Benzoxazole, 2-chloro-","2-chloro-1,3-benzoxazole",21690,DTXSID5060643,Clc1[n]c2ccccc2o1,InChI=1S/C7H4ClNO/c8-7-9-5-3-1-2-4-6(5)10-7/h1-4H,BBVQDWDBTWSGHQ-UHFFFAOYSA-N,?,201.5,102689
102691,615-36-1,615-36-1,Nc1ccccc1Br,O-BROMOANILINE,"Benzenamine, 2-bromo-",2-Bromoaniline,21692,DTXSID5060645,Nc1ccccc1Br,"InChI=1S/C6H6BrN/c7-5-3-1-2-4-6(5)8/h1-4H,8H2",AOPBDRUWRLBSDB-UHFFFAOYSA-N,?,229.0,102691
102692,615-37-2,615-37-2,Cc1ccccc1I,O-IODOTOLUENE,"Benzene, 1-iodo-2-methyl-",1-Iodo-2-methylbenzene,21693,DTXSID0060646,Cc1ccccc1I,"InChI=1S/C7H7I/c1-6-4-2-3-5-7(6)8/h2-5H,1H3",RINOYHWVBUKAQE-UHFFFAOYSA-N,?,211.5,102692