ChemID,source_casrn,CAS,SMILES,NAME,preferred_name,iupac,MPID,dsstox_substance_id,Canonical_QSARr,InChI_Code_QSARr,InChI Key_QSARr,Salt_Solvent,BP,ID
101139,111-55-7,111-55-7,CC(=O)OCCOC(C)=O,ETHYLENE GLYCOL DIACETATE,"1,2-Ethanediol diacetate","ethane-1,2-diyl diacetate",20204,DTXSID0026880,CC(=O)OCCOC(C)=O,"InChI=1S/C6H10O4/c1-5(7)9-3-4-10-6(2)8/h3-4H2,1-2H3",JTXMVXSTHSMVQF-UHFFFAOYSA-N,?,190.0,101139
101140,111-64-8,111-64-8,CCCCCCCC(=O)Cl,Octanoyl chloride,Caprylyl chloride,octanoyl chloride,20205,DTXSID9024724,CCCCCCCC(=O)Cl,"InChI=1S/C8H15ClO/c1-2-3-4-5-6-7-8(9)10/h2-7H2,1H3",REEZZSHJLXOIHL-UHFFFAOYSA-N,?,195.6,101140
101141,111-65-9,111-65-9,CCCCCCCC,OCTANE,Octane,octane,20206,DTXSID0026882,CCCCCCCC,"InChI=1S/C8H18/c1-3-5-7-8-6-4-2/h3-8H2,1-2H3",TVMXDCGIABBOFY-UHFFFAOYSA-N,?,125.6,101141
101143,111-67-1,111-67-1,CC=CCCCCC,2-OCTENE,2-Octene,,20208,DTXSID0059407,CC=CCCCCC,"InChI=1S/C8H16/c1-3-5-7-8-6-4-2/h3,5H,4,6-8H2,1-2H3/b5-3+",ILPBINAXDRFYPL-HWKANZROSA-N,?,124.0,101143
101144,111-68-2,111-68-2,CCCCCCCN,HEPTYLAMINE,Heptylamine,C7H17N,20209,DTXSID7020681,CCCCCCCN,"InChI=1S/C7H17N/c1-2-3-4-5-6-7-8/h2-8H2,1H3",WJYIASZWHGOTOU-UHFFFAOYSA-N,?,156.0,101144
101145,111-69-3,111-69-3,N#CCCCCC#N,ADIPONITRILE,Hexanedinitrile,hexanedinitrile,20210,DTXSID3021936,N#CCCCCC#N,InChI=1S/C6H8N2/c7-5-3-1-2-4-6-8/h1-4H2,BTGRAWJCKBQKAO-UHFFFAOYSA-N,?,295.0,101145
101147,111-71-7,111-71-7,CCCCCCC=O,HEPTANAL,Heptanal,heptanal,20212,DTXSID0021597,CCCCCCC=O,"InChI=1S/C7H14O/c1-2-3-4-5-6-7-8/h7H,2-6H2,1H3",FXHGMKSSBGDXIY-UHFFFAOYSA-N,?,152.8,101147
101148,111-74-0,111-74-0,CCNCCNCC,"1,2-ETHANEDIAMINE, N,N'-DIETHYL-","1,2-Ethanediamine, N,N'-diethyl-","N,N'-diethylethane-1,2-diamine",20213,DTXSID0059409,CCNCCNCC,"InChI=1S/C6H16N2/c1-3-7-5-6-8-4-2/h7-8H,3-6H2,1-2H3",CJKRXEBLWJVYJD-UHFFFAOYSA-N,?,146.0,101148
101149,111-75-1,111-75-1,CCCCNCCO,"Ethanol, 2-(butylamino)-","Ethanol, 2-(butylamino)-",2-Butylaminoethanol,20214,DTXSID9059410,CCCCNCCO,"InChI=1S/C6H15NO/c1-2-3-4-7-5-6-8/h7-8H,2-6H2,1H3",LJDSTRZHPWMDPG-UHFFFAOYSA-N,?,199.0,101149
101151,111-77-3,111-77-3,COCCOCCO,DIETHYLENE GLYCOL MONOMETHYL ETHER,Diethylene glycol monomethyl ether,2-(2-methoxyethoxy)ethanol,20216,DTXSID3025049,COCCOCCO,"InChI=1S/C5H12O3/c1-7-4-5-8-3-2-6/h6H,2-5H2,1H3",SBASXUCJHJRPEV-UHFFFAOYSA-N,?,193.0,101151
101152,111-78-4,111-78-4,C1CC=CCCC=C1,"CYCLOOCTA-1,5-DIENE","1,5-Cyclooctadiene","(1Z,5Z)-cycloocta-1,5-diene",20217,DTXSID0026888,C1CC=CCCC=C1,"InChI=1S/C8H12/c1-2-4-6-8-7-5-3-1/h1-2,7-8H,3-6H2/b2-1-,8-7-",VYXHVRARDIDEHS-QGTKBVGQSA-N,?,150.8,101152
101153,111-81-9,111-81-9,COC(=O)CCCCCCCCC=C,"10-Undecenoic acid, methyl ester",Methyl 10-undecenoate,methyl undec-10-enoate,20218,DTXSID5046566,COC(=O)CCCCCCCCC=C,"InChI=1S/C12H22O2/c1-3-4-5-6-7-8-9-10-11-12(13)14-2/h3H,1,4-11H2,2H3",KISVAASFGZJBCY-UHFFFAOYSA-N,?,248.0,101153
101155,111-83-1,111-83-1,CCCCCCCCBr,1-BROMOOCTANE,1-Bromooctane,1-bromooctane,20220,DTXSID3021938,CCCCCCCCBr,"InChI=1S/C8H17Br/c1-2-3-4-5-6-7-8-9/h2-8H2,1H3",VMKOFRJSULQZRM-UHFFFAOYSA-N,?,200.0,101155
101156,111-84-2,111-84-2,CCCCCCCCC,N-NONANE,Nonane,nonane,20221,DTXSID9025796,CCCCCCCCC,"InChI=1S/C9H20/c1-3-5-7-9-8-6-4-2/h3-9H2,1-2H3",BKIMMITUMNQMOS-UHFFFAOYSA-N,?,150.8,101156
101157,111-85-3,111-85-3,CCCCCCCCCl,1-CHLOROOCTANE,1-Chlorooctane,1-chlorooctane,20222,DTXSID0021543,CCCCCCCCCl,"InChI=1S/C8H17Cl/c1-2-3-4-5-6-7-8-9/h2-8H2,1H3",CNDHHGUSRIZDSL-UHFFFAOYSA-N,?,181.5,101157
101159,111-87-5,111-87-5,CCCCCCCCO,1-OCTANOL,1-Octanol,octan-1-ol,20224,DTXSID7021940,CCCCCCCCO,"InChI=1S/C8H18O/c1-2-3-4-5-6-7-8-9/h9H,2-8H2,1H3",KBPLFHHGFOOTCA-UHFFFAOYSA-N,?,195.1,101159
101160,111-88-6,111-88-6,CCCCCCCCS,1-OCTANETHIOL,1-Octanethiol,octane-1-thiol,20225,DTXSID4026894,CCCCCCCCS,"InChI=1S/C8H18S/c1-2-3-4-5-6-7-8-9/h9H,2-8H2,1H3",KZCOBXFFBQJQHH-UHFFFAOYSA-N,?,199.1,101160
101161,111-90-0,111-90-0,CCOCCOCCO,DIETHYLENE GLYCOL MONOETHYL ETHER,2-(2-Ethoxyethoxy)ethanol,2-(2-ethoxyethoxy)ethanol,20226,DTXSID2021941,CCOCCOCCO,"InChI=1S/C6H14O3/c1-2-8-5-6-9-4-3-7/h7H,2-6H2,1H3",XXJWXESWEXIICW-UHFFFAOYSA-N,?,196.0,101161
101163,111-92-2,111-92-2,CCCCNCCCC,DIBUTYLAMINE,N-Butyl-1-butanamine,N-butylbutan-1-amine,20228,DTXSID7024952,CCCCNCCCC,"InChI=1S/C8H19N/c1-3-5-7-9-8-6-4-2/h9H,3-8H2,1-2H3",JQVDAXLFBXTEQA-UHFFFAOYSA-N,?,159.6,101163
101164,111-96-6,111-96-6,COCCOCCOC,2-METHOXYETHYLETHER,Bis(2-methoxyethyl) ether,1-methoxy-2-(2-methoxyethoxy)ethane,20229,DTXSID1024621,COCCOCCOC,"InChI=1S/C6H14O3/c1-7-3-5-9-6-4-8-2/h3-6H2,1-2H3",SBZXBUIDTXKZTM-UHFFFAOYSA-N,?,162.0,101164
101165,112-05-0,112-05-0,CCCCCCCCC(O)=O,NONANOIC ACID,Nonanoic acid,nonanoic acid,20230,DTXSID3021641,CCCCCCCCC(O)=O,"InChI=1S/C9H18O2/c1-2-3-4-5-6-7-8-9(10)11/h2-8H2,1H3,(H,10,11)",FBUKVWPVBMHYJY-UHFFFAOYSA-N,?,254.5,101165
101167,112-07-2,112-07-2,CCCCOCCOC(C)=O,2-BUTOXYETHANOL ACETATE,2-Butoxyethyl acetate,2-butoxyethyl acetate,20232,DTXSID1026904,CCCCOCCOC(C)=O,"InChI=1S/C8H16O3/c1-3-4-5-10-6-7-11-8(2)9/h3-7H2,1-2H3",NQBXSWAWVZHKBZ-UHFFFAOYSA-N,?,192.0,101167
101168,112-12-9,112-12-9,CCCCCCCCCC(C)=O,UNDECANONE,2-Undecanone,undecan-2-one,20233,DTXSID2021943,CCCCCCCCCC(C)=O,"InChI=1S/C11H22O/c1-3-4-5-6-7-8-9-10-11(2)12/h3-10H2,1-2H3",KYWIYKKSMDLRDC-UHFFFAOYSA-N,?,231.5,101168
101169,112-14-1,112-14-1,CCCCCCCCOC(C)=O,"Acetic acid, octyl ester",Octyl acetate,octyl acetate,20234,DTXSID8044202,CCCCCCCCOC(C)=O,"InChI=1S/C10H20O2/c1-3-4-5-6-7-8-9-12-10(2)11/h3-9H2,1-2H3",YLYBTZIQSIBWLI-UHFFFAOYSA-N,?,210.0,101169
101171,112-17-4,112-17-4,CCCCCCCCCCOC(C)=O,DECYL ACETATE,Decyl acetate,decyl acetate,20236,DTXSID8047189,CCCCCCCCCCOC(C)=O,"InChI=1S/C12H24O2/c1-3-4-5-6-7-8-9-10-11-14-12(2)13/h3-11H2,1-2H3",NUPSHWCALHZGOV-UHFFFAOYSA-N,?,244.0,101171
101172,112-18-5,112-18-5,CCCCCCCCCCCCN(C)C,"N,N-DIMETHYLDODECYLAMINE","N,N-Dimethyldodecan-1-amine","N,N-dimethyldodecan-1-amine",20237,DTXSID1026906,CCCCCCCCCCCCN(C)C,"InChI=1S/C14H31N/c1-4-5-6-7-8-9-10-11-12-13-14-15(2)3/h4-14H2,1-3H3",YWFWDNVOPHGWMX-UHFFFAOYSA-N,?,260.0,101172
101173,112-20-9,112-20-9,CCCCCCCCCN,N-NONYLAMINE,Nonylamine,nonan-1-amine,20238,DTXSID7021944,CCCCCCCCCN,"InChI=1S/C9H21N/c1-2-3-4-5-6-7-8-9-10/h2-10H2,1H3",FJDUDHYHRVPMJZ-UHFFFAOYSA-N,?,202.2,101173
101175,112-24-3,112-24-3,NCCNCCNCCN,TRIETHYLENETETRAAMINE,Triethylenetetramine,"N,N'-bis(2-aminoethyl)ethane-1,2-diamine",20240,DTXSID9023702,NCCNCCNCCN,"InChI=1S/C6H18N4/c7-1-3-9-5-6-10-4-2-8/h9-10H,1-8H2",VILCJCGEZXAXTO-UHFFFAOYSA-N,?,266.5,101175
101176,112-25-4,112-25-4,CCCCCCOCCO,"ETHANOL, 2-(HEXYLOXY)-",2-(Hexyloxy)ethanol,2-(hexyloxy)ethanol,20241,DTXSID1026908,CCCCCCOCCO,"InChI=1S/C8H18O2/c1-2-3-4-5-7-10-8-6-9/h9H,2-8H2,1H3",UPGSWASWQBLSKZ-UHFFFAOYSA-N,?,208.0,101176
101177,112-26-5,112-26-5,ClCCOCCOCCCl,"1,2-BIS(2-CHLOROETHOXY)ETHANE","1,2-Bis(2-chloroethoxy)ethane",1-chloro-2-[2-(2-chloroethoxy)ethoxy]ethane,20242,DTXSID8047000,ClCCOCCOCCCl,InChI=1S/C6H12Cl2O2/c7-1-3-9-5-6-10-4-2-8/h1-6H2,AGYUOJIYYGGHKV-UHFFFAOYSA-N,?,232.0,101177
101179,112-29-8,112-29-8,CCCCCCCCCCBr,1-BROMODECANE,1-Bromodecane,1-bromodecane,20244,DTXSID9051581,CCCCCCCCCCBr,"InChI=1S/C10H21Br/c1-2-3-4-5-6-7-8-9-10-11/h2-10H2,1H3",MYMSJFSOOQERIO-UHFFFAOYSA-N,?,240.6,101179
101180,112-30-1,112-30-1,CCCCCCCCCCO,1-DECANOL,1-Decanol,decan-1-ol,20245,DTXSID7021946,CCCCCCCCCCO,"InChI=1S/C10H22O/c1-2-3-4-5-6-7-8-9-10-11/h11H,2-10H2,1H3",MWKFXSUHUHTGQN-UHFFFAOYSA-N,?,231.1,101180
101181,112-31-2,112-31-2,CCCCCCCCCC=O,N-DECANAL,Decanal,decanal,20246,DTXSID4021553,CCCCCCCCCC=O,"InChI=1S/C10H20O/c1-2-3-4-5-6-7-8-9-10-11/h10H,2-9H2,1H3",KSMVZQYAVGTKIV-UHFFFAOYSA-N,?,208.5,101181
101183,112-34-5,112-34-5,CCCCOCCOCCO,DIETHYLENE GLYCOL MONO-N-BUTYL ETHER,2-(2-Butoxyethoxy)ethanol,2-(2-butoxyethoxy)ethanol,20248,DTXSID8021519,CCCCOCCOCCO,"InChI=1S/C8H18O3/c1-2-3-5-10-7-8-11-6-4-9/h9H,2-8H2,1H3",OAYXUHPQHDHDDZ-UHFFFAOYSA-N,?,231.0,101183
101184,112-35-6,112-35-6,COCCOCCOCCO,METHOXY TRIETHYLENE GLYCOL,2-[2-(2-Methoxyethoxy)ethoxy]ethanol,2-[2-(2-methoxyethoxy)ethoxy]ethanol,20249,DTXSID5026912,COCCOCCOCCO,"InChI=1S/C7H16O4/c1-9-4-5-11-7-6-10-3-2-8/h8H,2-7H2,1H3",JLGLQAWTXXGVEM-UHFFFAOYSA-N,?,249.0,101184
101185,112-36-7,112-36-7,CCOCCOCCOCC,BIS (2-ETHOXY ETHYL)  ETHER,Diethylene glycol diethyl ether,1-ethoxy-2-(2-ethoxyethoxy)ethane,20250,DTXSID3025047,CCOCCOCCOCC,"InChI=1S/C8H18O3/c1-3-9-5-7-11-8-6-10-4-2/h3-8H2,1-2H3",RRQYJINTUHWNHW-UHFFFAOYSA-N,?,188.0,101185
101187,112-38-9,112-38-9,C=CCCCCCCCCC(O)=O,UNDECYLENIC ACID,10-Undecenoic acid,undec-10-enoic acid,20252,DTXSID8035001,C=CCCCCCCCCC(O)=O,"InChI=1S/C11H20O2/c1-2-3-4-5-6-7-8-9-10-11(12)13/h2H,1,3-10H2,(H,12,13)",FRPZMMHWLSIFAZ-UHFFFAOYSA-N,?,275.0,101187
101188,112-40-3,112-40-3,CCCCCCCCCCCC,DODECANE,Dodecane,dodecane,20253,DTXSID0026913,CCCCCCCCCCCC,"InChI=1S/C12H26/c1-3-5-7-9-11-12-10-8-6-4-2/h3-12H2,1-2H3",SNRUBQQJIBEYMU-UHFFFAOYSA-N,?,216.3,101188
101189,112-41-4,112-41-4,CCCCCCCCCCC=C,N-DODECENE,1-Dodecene,dodec-1-ene,20254,DTXSID5026914,CCCCCCCCCCC=C,"InChI=1S/C12H24/c1-3-5-7-9-11-12-10-8-6-4-2/h3H,1,4-12H2,2H3",CRSBERNSMYQZNG-UHFFFAOYSA-N,?,213.8,101189
101191,112-43-6,112-43-6,C=CCCCCCCCCCO,10-Undecen-1-ol,10-Undecen-1-ol,undec-10-en-1-ol,20256,DTXSID4059419,C=CCCCCCCCCCO,"InChI=1S/C11H22O/c1-2-3-4-5-6-7-8-9-10-11-12/h2,12H,1,3-11H2",GIEMHYCMBGELGY-UHFFFAOYSA-N,?,250.0,101191
101192,112-46-9,NOCAS_870465,CC=CCCCCCCCCO,Undec-9-en-1-ol,,,20257,DTXSID80870465,CC=CCCCCCCCCO,"InChI=1S/C11H22O/c1-2-3-4-5-6-7-8-9-10-11-12/h2-3,12H,4-11H2,1H3/b3-2+",XWGRSDLPOHMWEO-NSCUHMNNSA-N,?,248.5,101192
101193,112-48-1,112-48-1,CCCCOCCOCCCC,"1,2-DIBUTOXYETHANE",Ethylene glycol dibutyl ether,1-(2-butoxyethoxy)butane,20258,DTXSID5074268,CCCCOCCOCCCC,"InChI=1S/C10H22O2/c1-3-5-7-11-9-10-12-8-6-4-2/h3-10H2,1-2H3",GDXHBFHOEYVPED-UHFFFAOYSA-N,?,203.3,101193
101195,112-50-5,112-50-5,CCOCCOCCOCCO,ETHOXYTRIETHYLENE GLYCOL,2-[2-(2-Ethoxyethoxy)ethoxy]ethanol,2-[2-(2-ethoxyethoxy)ethoxy]ethanol,20260,DTXSID3024368,CCOCCOCCOCCO,"InChI=1S/C8H18O4/c1-2-10-5-6-12-8-7-11-4-3-9/h9H,2-8H2,1H3",WFSMVVDJSNMRAR-UHFFFAOYSA-N,?,255.8,101195
101196,112-52-7,112-52-7,CCCCCCCCCCCCCl,1-CHLORODODECANE,1-Chlorododecane,1-chlorododecane,20261,DTXSID0025492,CCCCCCCCCCCCCl,"InChI=1S/C12H25Cl/c1-2-3-4-5-6-7-8-9-10-11-12-13/h2-12H2,1H3",YAYNEUUHHLGGAH-UHFFFAOYSA-N,?,260.0,101196
101197,112-53-8,112-53-8,CCCCCCCCCCCCO,DODECANOL,1-Dodecanol,dodecan-1-ol,20262,DTXSID5026918,CCCCCCCCCCCCO,"InChI=1S/C12H26O/c1-2-3-4-5-6-7-8-9-10-11-12-13/h13H,2-12H2,1H3",LQZZUXJYWNFBMV-UHFFFAOYSA-N,?,259.0,101197
101199,112-57-2,112-57-2,NCCNCCNCCNCCN,TETRAETHYLENEPENTAMINE,Tetraethylenepentamine,"N-(2-aminoethyl)-N'-{2-[(2-aminoethyl)amino]ethyl}ethane-1,2-diamine",20264,DTXSID7026108,NCCNCCNCCNCCN,"InChI=1S/C8H23N5/c9-1-3-11-5-7-13-8-6-12-4-2-10/h11-13H,1-10H2",FAGUFWYHJQFNRV-UHFFFAOYSA-N,?,341.5,101199
101200,112-58-3,112-58-3,CCCCCCOCCCCCC,DI-N-HEXYL ETHER,"Hexane, 1,1'-oxybis-",1-hexoxyhexane,20265,DTXSID8059421,CCCCCCOCCCCCC,"InChI=1S/C12H26O/c1-3-5-7-9-11-13-12-10-8-6-4-2/h3-12H2,1-2H3",BPIUIOXAFBGMNB-UHFFFAOYSA-N,?,223.0,101200
101201,112-59-4,112-59-4,CCCCCCOCCOCCO,"ETHANOL, 2- 2-(HEXYLOXY)ETHOXY -",2-[2-(Hexyloxy)ethoxy]ethanol,2-[2-(hexyloxy)ethoxy]ethanol,20266,DTXSID4026921,CCCCCCOCCOCCO,"InChI=1S/C10H22O3/c1-2-3-4-5-7-12-9-10-13-8-6-11/h11H,2-10H2,1H3",GZMAAYIALGURDQ-UHFFFAOYSA-N,?,260.0,101201
101203,112-61-8,112-61-8,CCCCCCCCCCCCCCCCCC(=O)OC,METHYL STEARATE,Methyl stearate,methyl octadecanoate,20268,DTXSID2047640,CCCCCCCCCCCCCCCCCC(=O)OC,"InChI=1S/C19H38O2/c1-3-4-5-6-7-8-9-10-11-12-13-14-15-16-17-18-19(20)21-2/h3-18H2,1-2H3",HPEUJPJOZXNMSJ-UHFFFAOYSA-N,?,370.0,101203
101204,112-66-3,112-66-3,CCCCCCCCCCCCOC(C)=O,DODECYL ACETATE,Dodecyl acetate,dodecyl acetate,20269,DTXSID7047641,CCCCCCCCCCCCOC(C)=O,"InChI=1S/C14H28O2/c1-3-4-5-6-7-8-9-10-11-12-13-16-14(2)15/h3-13H2,1-2H3",VZWGRQBCURJOMT-UHFFFAOYSA-N,?,265.0,101204
101205,112-71-0,112-71-0,CCCCCCCCCCCCCCBr,1-BROMO-N-TETRADECANE,1-Bromotetradecane,1-bromotetradecane,20270,DTXSID3038725,CCCCCCCCCCCCCCBr,"InChI=1S/C14H29Br/c1-2-3-4-5-6-7-8-9-10-11-12-13-14-15/h2-14H2,1H3",KOFZTCSTGIWCQG-UHFFFAOYSA-N,?,307.0,101205
101207,112-73-2,112-73-2,CCCCOCCOCCOCCCC,DIETHYLENE GLYCOL DIBUTYL ETHER,Diethylene glycol dibutyl ether,1-[2-(2-butoxyethoxy)ethoxy]butane,20272,DTXSID8025046,CCCCOCCOCCOCCCC,"InChI=1S/C12H26O3/c1-3-5-7-13-9-11-15-12-10-14-8-6-4-2/h3-12H2,1-2H3",KZVBBTZJMSWGTK-UHFFFAOYSA-N,?,256.0,101207
101208,112-80-1,112-80-1,CCCCCCCC/C=C\CCCCCCCC(O)=O,OLEIC ACID,Oleic acid,C18H34O2,20273,DTXSID1025809,CCCCCCCCC=CCCCCCCCC(O)=O,"InChI=1S/C18H34O2/c1-2-3-4-5-6-7-8-9-10-11-12-13-14-15-16-17-18(19)20/h9-10H,2-8,11-17H2,1H3,(H,19,20)/b10-9+",ZQPPMHVWECSIRJ-MDZDMXLPSA-N,?,360.0,101208
101209,112-82-3,112-82-3,CCCCCCCCCCCCCCCCBr,1-BROMOHEXADECANE,"Hexadecane,1-bromo-",1-bromohexadecane,20274,DTXSID2049397,CCCCCCCCCCCCCCCCBr,"InChI=1S/C16H33Br/c1-2-3-4-5-6-7-8-9-10-11-12-13-14-15-16-17/h2-16H2,1H3",HNTGIJLWHDPAFN-UHFFFAOYSA-N,?,336.0,101209
101211,112-96-9,112-96-9,CCCCCCCCCCCCCCCCCCN=C=O,"Octadecane, 1-isocyanato-",Octadecyl isocyanate,1-isocyanatooctadecane,20276,DTXSID3038727,CCCCCCCCCCCCCCCCCCN=C=O,"InChI=1S/C19H37NO/c1-2-3-4-5-6-7-8-9-10-11-12-13-14-15-16-17-18-20-19-21/h2-18H2,1H3",QWDQYHPOSSHSAW-UHFFFAOYSA-N,?,300.0,101211
101212,113-18-8,113-18-8,CCC(O)(C=CCl)C#C,Ethchlorvynol,Ethchlorvynol,C7H9ClO,20277,DTXSID2023010,CCC(O)(C=CCl)C#C,"InChI=1S/C7H9ClO/c1-3-7(9,4-2)5-6-8/h1,5-6,9H,4H2,2H3/b6-5-",ZEHYJZXQEQOSON-WAYWQWQTSA-N,?,174.0,101212
101213,114-91-0,114-91-0,COCCc1cccc[n]1,"Pyridine, 2-(2-methoxyethyl)-",Metyridine,2-(2-methoxyethyl)pyridine,20278,DTXSID5057624,COCCc1cccc[n]1,"InChI=1S/C8H11NO/c1-10-7-5-8-4-2-3-6-9-8/h2-4,6H,5,7H2,1H3",QRBVCAWHUSTDOT-UHFFFAOYSA-N,?,203.0,101213
101215,115-10-6,115-10-6,COC,DIMETHYL ETHER,Dimethyl ether,C2H6O,20280,DTXSID8026937,COC,InChI=1S/C2H6O/c1-3-2/h1-2H3,LCGLNKUTAGEVQW-UHFFFAOYSA-N,?,-24.8,101215
101216,115-11-7,115-11-7,CC(C)=C,ISOBUTENE,Isobutene,2-methylprop-1-ene,20281,DTXSID9020748,CC(C)=C,"InChI=1S/C4H8/c1-4(2)3/h1H2,2-3H3",VQTUBCCKSQIDNK-UHFFFAOYSA-N,?,-6.9,101216
101217,115-17-3,115-17-3,O=CC(Br)(Br)Br,TRIBROMOACETALDEHYDE,Tribromoacetaldehyde,tribromoacetaldehyde,20282,DTXSID1021667,O=CC(Br)(Br)Br,"InChI=1S/C2HBr3O/c3-2(4,5)1-6/h1H",YTGSYRVSBPFKMQ-UHFFFAOYSA-N,?,174.0,101217
101219,115-19-5,115-19-5,CC(C)(O)C#C,2-METHYL-3-BUTYN-2-OL,2-Methyl-3-butyn-2-ol,2-methylbut-3-yn-2-ol,20284,DTXSID2021949,CC(C)(O)C#C,"InChI=1S/C5H8O/c1-4-5(2,3)6/h1,6H,2-3H3",CEBKHWWANWSNTI-UHFFFAOYSA-N,?,104.0,101219
101220,115-20-8,115-20-8,OCC(Cl)(Cl)Cl,"2,2,2-TRICHLOROETHANOL","2,2,2-Trichloroethanol","2,2,2-trichloroethanol",20285,DTXSID1021950,OCC(Cl)(Cl)Cl,"InChI=1S/C2H3Cl3O/c3-2(4,5)1-6/h6H,1H2",KPWDGTGXUYRARH-UHFFFAOYSA-N,?,152.0,101220
101221,115-21-9,115-21-9,CC[Si](Cl)(Cl)Cl,ETHYLTRICHLOROSILANE,Trichloroethylsilane,trichloro(ethyl)silane,20286,DTXSID7026940,CC[Si](Cl)(Cl)Cl,"InChI=1S/C2H5Cl3Si/c1-2-6(3,4)5/h2H2,1H3",ZOYFEXPFPVDYIS-UHFFFAOYSA-N,?,100.5,101221
101223,115-24-2,115-24-2,CC(C)(S(=O)(=O)CC)S(=O)(=O)CC,"2,2-BIS(ETHYLSULFONYL)PROPANE",Sulfonmethane,"2,2-bis(ethylsulfonyl)propane",20288,DTXSID3048574,CC(C)(S(=O)(=O)CC)S(=O)(=O)CC,"InChI=1S/C7H16O4S2/c1-5-12(8,9)7(3,4)13(10,11)6-2/h5-6H2,1-4H3",CESKLHVYGRFMFP-UHFFFAOYSA-N,?,300.0,101223
101224,115-25-3,115-25-3,FC1(F)C(F)(F)C(F)(F)C1(F)F,PERFLUOROCYCLOBUTANE,"Cyclobutane, octafluoro-",octafluorocyclobutane,20289,DTXSID9041811,FC1(F)C(F)(F)C(F)(F)C1(F)F,"InChI=1S/C4F8/c5-1(6)2(7,8)4(11,12)3(1,9)10",BCCOBQSFUDVTJQ-UHFFFAOYSA-N,?,-5.9,101224
101225,115-71-9,115-71-9,C[C@]1(CC/C=C(/C)\CO)C2C[C@@H]3[C@H](C2)C13C,alpha-Santalol,alpha-Santalol,"(2Z)-5-[(1R,3S,6S)-2,3-dimethyltricyclo[2.2.1.0~2,6~]hept-3-yl]-2-methylpent-2-en-1-ol",20290,DTXSID9051587,CC1(CCC=C(C)CO)C2CC3C(C2)C13C,"InChI=1S/C15H24O/c1-10(9-16)5-4-6-14(2)11-7-12-13(8-11)15(12,14)3/h5,11-13,16H,4,6-9H2,1-3H3/b10-5+",PDEQKAVEYSOLJX-BJMVGYQFSA-N,?,301.5,101225
101227,115-80-0,115-80-0,CCC(OCC)(OCC)OCC,"Propane, 1,1,1-triethoxy-","Propane, 1,1,1-triethoxy-","1,1,1-triethoxypropane",20292,DTXSID2059431,CCC(OCC)(OCC)OCC,"InChI=1S/C9H20O3/c1-5-9(10-6-2,11-7-3)12-8-4/h5-8H2,1-4H3",FGWYWKIOMUZSQF-UHFFFAOYSA-N,?,171.0,101227
101228,115-82-2,115-82-2,CCCCC(CO[Si](OCC(CCCC)CC)(OCC(CCCC)CC)OCC(CCCC)CC)CC,"Silicic acid (H4SiO4), tetrakis(2-ethylhexyl) es",Tetrakis(2-ethylhexyl) orthosilicate,tetrakis(2-ethylhexyl) orthosilicate,20293,DTXSID4051588,CCCCC(CO[Si](OCC(CCCC)CC)(OCC(CCCC)CC)OCC(CCCC)CC)CC,"InChI=1S/C32H68O4Si/c1-9-17-21-29(13-5)25-33-37(34-26-30(14-6)22-18-10-2,35-27-31(15-7)23-19-11-3)36-28-32(16-8)24-20-12-4/h29-32H,9-28H2,1-8H3",MQHSFMJHURNQIE-UHFFFAOYSA-N,?,419.0,101228
101229,115-84-4,115-84-4,CCCCC(CO)(CO)CC,"1,3-Propanediol, 2-butyl-2-ethyl-","2-Butyl-2-ethyl-1,3-propanediol","2-butyl-2-ethylpropane-1,3-diol",20294,DTXSID8041400,CCCCC(CO)(CO)CC,"InChI=1S/C9H20O2/c1-3-5-6-9(4-2,7-10)8-11/h10-11H,3-8H2,1-2H3",DSKYSDCYIODJPC-UHFFFAOYSA-N,?,262.0,101229
101231,115-96-8,115-96-8,O=P(OCCCl)(OCCCl)OCCCl,TRI-2-CHLOROETHYL PHOSPHATE,Tris(2-chloroethyl) phosphate,tris(2-chloroethyl) phosphate,20296,DTXSID5021411,O=P(OCCCl)(OCCCl)OCCCl,"InChI=1S/C6H12Cl3O4P/c7-1-4-11-14(10,12-5-2-8)13-6-3-9/h1-6H2",HQUQLFOMPYWACS-UHFFFAOYSA-N,?,330.0,101231
101232,116-09-6,116-09-6,CC(=O)CO,HYDROXYACETONE,Hydroxyacetone,1-hydroxyacetone,20297,DTXSID8051590,CC(=O)CO,"InChI=1S/C3H6O2/c1-3(5)2-4/h4H,2H2,1H3",XLSMFKSTNGKWQX-UHFFFAOYSA-N,?,145.5,101232
101233,116-11-0,116-11-0,COC(C)=C,ISOPROPENYL METHYL ETHER,2-Methoxyprop-1-ene,2-methoxyprop-1-ene,20298,DTXSID3051591,COC(C)=C,"InChI=1S/C4H8O/c1-4(2)5-3/h1H2,2-3H3",YOWQWFMSQCOSBA-UHFFFAOYSA-N,?,35.0,101233
101235,116-15-4,116-15-4,FC(F)=C(F)C(F)(F)F,HEXAFLUOROPROPENE,"1,1,2,3,3,3-Hexafluoro-1-propene","1,1,2,3,3,3-hexafluoroprop-1-ene",20300,DTXSID2026949,FC(F)=C(F)C(F)(F)F,"InChI=1S/C3F6/c4-1(2(5)6)3(7,8)9",HCDGVLDPFQMKDK-UHFFFAOYSA-N,?,-29.6,101235
101236,116-16-5,116-16-5,O=C(C(Cl)(Cl)Cl)C(Cl)(Cl)Cl,HEXACHLOROACETONE,Hexachloroacetone,"1,1,1,3,3,3-hexachloropropan-2-one",20301,DTXSID7021601,O=C(C(Cl)(Cl)Cl)C(Cl)(Cl)Cl,"InChI=1S/C3Cl6O/c4-2(5,6)1(10)3(7,8)9",DOJXGHGHTWFZHK-UHFFFAOYSA-N,?,203.0,101236
101237,116-53-0,116-53-0,CCC(C)C(O)=O,"BUTANOIC ACID, 2-METHYL-",2-Methylbutanoic acid,2-methylbutanoic acid,20302,DTXSID5021621,CCC(C)C(O)=O,"InChI=1S/C5H10O2/c1-3-4(2)5(6)7/h4H,3H2,1-2H3,(H,6,7)",WLAMNBDJUVNPJU-UHFFFAOYSA-N,?,176.5,101237
101239,117-18-0,117-18-0,[O-][N+](=O)c1c(Cl)c(Cl)cc(Cl)c1Cl,"2,3,5,6-TETRACHLORONITROBENZENE","2,3,5,6-Tetrachloronitrobenzene","1,2,4,5-tetrachloro-3-nitrobenzene",20304,DTXSID0026098,[O-][N+](=O)c1c(Cl)c(Cl)cc(Cl)c1Cl,InChI=1S/C6HCl4NO2/c7-2-1-3(8)5(10)6(4(2)9)11(12)13/h1H,XQTLDIFVVHJORV-UHFFFAOYSA-N,?,304.0,101239
101240,117-81-7,117-81-7,CCCCC(COC(=O)c1ccccc1C(=O)OCC(CCCC)CC)CC,BIS(2-ETHYLHEXYL)PHTHALATE,Di(2-ethylhexyl) phthalate,"bis(2-ethylhexyl) benzene-1,2-dicarboxylate",20305,DTXSID5020607,CCCCC(COC(=O)c1ccccc1C(=O)OCC(CCCC)CC)CC,"InChI=1S/C24H38O4/c1-5-9-13-19(7-3)17-27-23(25)21-15-11-12-16-22(21)24(26)28-18-20(8-4)14-10-6-2/h11-12,15-16,19-20H,5-10,13-14,17-18H2,1-4H3",BJQHLKABXJIVAM-UHFFFAOYSA-N,?,384.0,101240
101241,117-82-8,117-82-8,COCCOC(=O)c1ccccc1C(=O)OCCOC,BIS(METHOXYETHYL)PHTHALATE,Di(2-methoxyethyl) phthalate,"bis(2-methoxyethyl) benzene-1,2-dicarboxylate",20306,DTXSID8025094,COCCOC(=O)c1ccccc1C(=O)OCCOC,"InChI=1S/C14H18O6/c1-17-7-9-19-13(15)11-5-3-4-6-12(11)14(16)20-10-8-18-2/h3-6H,7-10H2,1-2H3",HSUIVCLOAAJSRE-UHFFFAOYSA-N,?,340.0,101241
101243,118-44-5,118-44-5,CCNc1cccc2ccccc21,"1-NAPHTHALENAMINE, N-ETHYL-","1-Naphthalenamine, N-ethyl-",N-ethylnaphthalen-1-amine,20308,DTXSID8059473,CCNc1cccc2ccccc21,"InChI=1S/C12H13N/c1-2-13-12-9-5-7-10-6-3-4-8-11(10)12/h3-9,13H,2H2,1H3",KDFFXYVOTKKBDI-UHFFFAOYSA-N,?,305.0,101243
101245,118-61-6,118-61-6,CCOC(=O)c1ccccc1O,ETHYL 2-HYDROXYBENZOATE,Ethyl salicylate,ethyl 2-hydroxybenzoate,20309,DTXSID1021958,CCOC(=O)c1ccccc1O,"InChI=1S/C9H10O3/c1-2-12-9(11)7-5-3-4-6-8(7)10/h3-6,10H,2H2,1H3",GYCKQBWUSACYIF-UHFFFAOYSA-N,?,232.5,101245