ChemID,source_casrn,CAS,SMILES,NAME,preferred_name,iupac,MPID,dsstox_substance_id,Canonical_QSARr,InChI_Code_QSARr,InChI Key_QSARr,Salt_Solvent,Salt_Solvent_ID,MP,ID
101244,94-41-7,614-47-1,O=C(/C=C/c1ccccc1)c1ccccc1,BENZALACETOPHENONE,Chalcone,"(2E)-1,3-diphenylprop-2-en-1-one",28538,DTXSID20873536,O=C(C=Cc1ccccc1)c1ccccc1,InChI=1S/C15H12O/c16-15(14-9-5-2-6-10-14)12-11-13-7-3-1-4-8-13/h1-12H/b12-11+,DQFBYFPFKXHELB-VAWYXSNFSA-N,?,,57.5,101244
101245,94-49-5,94-49-5,O=C(OCCOC(=O)c1ccccc1)c1ccccc1,"1,2-ETHANEDIOL, DIBENZOATE",,,28539,DTXSID60877972,O=C(OCCOC(=O)c1ccccc1)c1ccccc1,"InChI=1S/C16H14O4/c17-15(13-7-3-1-4-8-13)19-11-12-20-16(18)14-9-5-2-6-10-14/h1-10H,11-12H2",XFDQLDNQZFOAFK-UHFFFAOYSA-N,?,,73.5,101245
101247,94-53-1,94-53-1,OC(=O)c1cc2OCOc2cc1,"1,3-Benzodioxole-5-carboxylic acid","1,3-Benzodioxole-5-carboxylic acid","1,3-Benzodioxole-5-carboxylic acid",28541,DTXSID6059104,OC(=O)c1cc2OCOc2cc1,"InChI=1S/C8H6O4/c9-8(10)5-1-2-6-7(3-5)12-4-11-6/h1-3H,4H2,(H,9,10)",VDVJGIYXDVPQLP-UHFFFAOYSA-N,?,,229.0,101247
101248,94-59-7,94-59-7,C=CCc1ccc2OCOc2c1,SAFROLE,Safrole,"5-(prop-2-en-1-yl)-1,3-benzodioxole",28542,DTXSID0021254,C=CCc1ccc2OCOc2c1,"InChI=1S/C10H10O2/c1-2-3-8-4-5-9-10(6-8)12-7-11-9/h2,4-6H,1,3,7H2",ZMQAAUBTXCXRIC-UHFFFAOYSA-N,?,,11.2,101248
101249,94-62-2,94-62-2,O=C(/C=C/C=C/c1cc2OCOc2cc1)N1CCCCC1,"1-PIPEROYL-(E,E)-PIPERIDINE",Piperine,"(2E,4E)-5-(1,3-benzodioxol-5-yl)-1-(piperidin-1-yl)penta-2,4-dien-1-one",28543,DTXSID3021805,O=C(C=CC=Cc1cc2OCOc2cc1)N1CCCCC1,"InChI=1S/C17H19NO3/c19-17(18-10-4-1-5-11-18)7-3-2-6-14-8-9-15-16(12-14)21-13-20-15/h2-3,6-9,12H,1,4-5,10-11,13H2/b6-2+,7-3+",MXXWOMGUGJBKIW-YPCIICBESA-N,?,,131.5,101249
101251,94-69-9,94-69-9,Cc1ccccc1NC=O,"Formamide, N-(2-methylphenyl)-","Formamide, N-(2-methylphenyl)-",N-(2-Methylphenyl)formamide,28545,DTXSID6059108,Cc1ccccc1NC=O,"InChI=1S/C8H9NO/c1-7-4-2-3-5-8(7)9-6-10/h2-6H,1H3,(H,9,10)",ZXTLGJAARBNQGK-UHFFFAOYSA-N,?,,62.0,101251
101252,94-71-3,94-71-3,CCOc1ccccc1O,O-ETHOXYPHENOL,2-Ethoxyphenol,2-ethoxyphenol,28546,DTXSID2042276,CCOc1ccccc1O,"InChI=1S/C8H10O2/c1-2-10-8-6-4-3-5-7(8)9/h3-6,9H,2H2,1H3",MOEFFSWKSMRFRQ-UHFFFAOYSA-N,?,,29.0,101252
101253,94-74-6,94-74-6,Cc1cc(Cl)ccc1OCC(O)=O,2-METHYL-4-CHLOROPHENOXYACETIC ACID,MCPA,(4-chloro-2-methylphenoxy)acetic acid,28547,DTXSID4024195,Cc1cc(Cl)ccc1OCC(O)=O,"InChI=1S/C9H9ClO3/c1-6-4-7(10)2-3-8(6)13-5-9(11)12/h2-4H,5H2,1H3,(H,11,12)",WHKUVVPPKQRRBV-UHFFFAOYSA-N,?,,120.0,101253
101255,94-78-0,94-78-0,Nc1ccc(N=Nc2ccccc2)c(N)[n]1,PHENAZOPYRIDINE,Phenazopyridine,"3-(phenyldiazenyl)pyridine-2,6-diamine",28549,DTXSID1023445,Nc1ccc(N=Nc2ccccc2)c(N)[n]1,"InChI=1S/C11H11N5/c12-10-7-6-9(11(13)14-10)16-15-8-4-2-1-3-5-8/h1-7H,(H4,12,13,14)/b16-15+",QPFYXYFORQJZEC-FOCLMDBBSA-N,?,,139.0,101255
101256,94-81-5,94-81-5,Cc1cc(Cl)ccc1OCCCC(O)=O,MCPB,MCPB,4-(4-chloro-2-methylphenoxy)butanoic acid,28550,DTXSID4024193,Cc1cc(Cl)ccc1OCCCC(O)=O,"InChI=1S/C11H13ClO3/c1-8-7-9(12)4-5-10(8)15-6-2-3-11(13)14/h4-5,7H,2-3,6H2,1H3,(H,13,14)",LLWADFLAOKUBDR-UHFFFAOYSA-N,?,,100.0,101256
101257,94-82-6,94-82-6,OC(=O)CCCOc1ccc(Cl)cc1Cl,"2,4-DB","2,4-DB","4-(2,4-dichlorophenoxy)butanoic acid",28551,DTXSID7024035,OC(=O)CCCOc1ccc(Cl)cc1Cl,"InChI=1S/C10H10Cl2O3/c11-7-3-4-9(8(12)6-7)15-5-1-2-10(13)14/h3-4,6H,1-2,5H2,(H,13,14)",YIVXMZJTEQBPQO-UHFFFAOYSA-N,?,,118.0,101257
101259,94-86-0,94-86-0,CC=Cc1ccc(OCC)c(O)c1,"Phenol, 2-ethoxy-5-(1-propenyl)-",2-Ethoxy-5-(1-propenyl)phenol,2-ethoxy-5-(prop-1-en-1-yl)phenol,28553,DTXSID2047727,CC=Cc1ccc(OCC)c(O)c1,"InChI=1S/C11H14O2/c1-3-5-9-6-7-11(13-4-2)10(12)8-9/h3,5-8,12H,4H2,1-2H3/b5-3+",RADIRXJQODWKGQ-HWKANZROSA-N,?,,87.0,101259
101260,94-93-9,94-93-9,Oc1ccccc1C=NCCN=Cc1ccccc1O,Salen,"Phenol, 2,2'-[1,2-ethanediylbis(nitrilomethylidyne)]bis-",,28554,DTXSID5059113,Oc1ccccc1C=NCCN=Cc1ccccc1O,"InChI=1S/C16H16N2O2/c19-15-7-3-1-5-13(15)11-17-9-10-18-12-14-6-2-4-8-16(14)20/h1-8,11-12,19-20H,9-10H2/b17-11+,18-12+",VEUMANXWQDHAJV-JYFOCSDGSA-N,?,,127.5,101260
101261,94-96-2,94-96-2,CCC(CO)C(O)CCC,"2-ETHYL-1,3-HEXANDIOL","2-Ethyl-1,3-hexanediol","2-ethylhexane-1,3-diol",28555,DTXSID4025292,CCC(CO)C(O)CCC,"InChI=1S/C8H18O2/c1-3-5-8(10)7(4-2)6-9/h7-10H,3-6H2,1-2H3",RWLALWYNXFYRGW-UHFFFAOYSA-N,?,,-40.0,101261
101263,95-01-2,95-01-2,Oc1cc(O)c(C=O)cc1,"Benzaldehyde, 2,4-dihydroxy-","2,4-Dihydroxybenzaldehyde","2,4-dihydroxybenzaldehyde",28557,DTXSID8021806,Oc1cc(O)c(C=O)cc1,"InChI=1S/C7H6O3/c8-4-5-1-2-6(9)3-7(5)10/h1-4,9-10H",IUNJCFABHJZSKB-UHFFFAOYSA-N,?,,135.0,101263
101264,95-04-5,5982-97-8,CCC(=CC)C(=O)NC(N)=O,Ectylurea,1-(2-Ethylcrotonoyl)urea,C7H12N2O2,28558,DTXSID0049024,CCC(=CC)C(=O)NC(N)=O,"InChI=1S/C7H12N2O2/c1-3-5(4-2)6(10)9-7(8)11/h3H,4H2,1-2H3,(H3,8,9,10,11)/b5-3+",QCUPYFTWJOZAOB-HWKANZROSA-N,?,,198.0,101264
101265,95-05-6,95-05-6,CCN(CC)C(=S)SC(=S)N(CC)CC,Sulfiram,Sulfiram,"N,N,N',N'-tetraethyldicarbonotrithioic diamide",28559,DTXSID5058222,CCN(CC)C(=S)SC(=S)N(CC)CC,"InChI=1S/C10H20N2S3/c1-5-11(6-2)9(13)15-10(14)12(7-3)8-4/h5-8H2,1-4H3",CTPKSRZFJSJGML-UHFFFAOYSA-N,?,,31.0,101265
101268,95-13-6,95-13-6,C1C=Cc2ccccc21,INDENE,Indene,1H-indene,28561,DTXSID8042052,C1C=Cc2ccccc21,"InChI=1S/C9H8/c1-2-5-9-7-3-6-8(9)4-1/h1-6H,7H2",YBYIRNPNPLQARY-UHFFFAOYSA-N,?,,-1.8,101268
101269,95-14-7,95-14-7,c1cccc2[nH][n][n]c21,1H-BENZOTRIAZOLE,"1,2,3-Benzotriazole",1H-benzotriazole,28562,DTXSID6020147,c1cccc2[nH][n][n]c21,"InChI=1S/C6H5N3/c1-2-4-6-5(3-1)7-9-8-6/h1-4H,(H,7,8,9)",QRUDEWIWKLJBPS-UHFFFAOYSA-N,?,,100.0,101269
101270,95-15-8,95-15-8,c1cccc2[s]ccc21,BENZO(B)THIOPHENE,Benzothiophene,1-benzothiophene,28563,DTXSID2052736,c1cccc2[s]ccc21,InChI=1S/C8H6S/c1-2-4-8-7(3-1)5-6-9-8/h1-6H,FCEHBMOGCRZNNI-UHFFFAOYSA-N,?,,32.0,101270
101272,95-20-5,95-20-5,Cc1cc2ccccc2[nH]1,2-METHYLINDOLE,"1H-Indole, 2-methyl-",2-Methyl-1H-indole,28565,DTXSID5059117,Cc1cc2ccccc2[nH]1,"InChI=1S/C9H9N/c1-7-6-8-4-2-3-5-9(8)10-7/h2-6,10H,1H3",BHNHHSOHWZKFOX-UHFFFAOYSA-N,?,,61.0,101272
101273,95-21-6,NOCAS_870432,Cc1[n]c2ccccc2o1,"Benzoxazole, 2-methyl-",,,28566,DTXSID50870432,Cc1[n]c2ccccc2o1,"InChI=1S/C8H7NO/c1-6-9-7-4-2-3-5-8(7)10-6/h2-5H,1H3",DQSHFKPKFISSNM-UHFFFAOYSA-N,?,,9.5,101273
101274,95-24-9,95-24-9,Nc1[n]c2ccc(Cl)cc2[s]1,"2-Benzothiazolamine, 6-chloro-","2-Benzothiazolamine, 6-chloro-","6-chloro-1,3-benzothiazol-2-amine",28567,DTXSID4059120,Nc1[n]c2ccc(Cl)cc2[s]1,"InChI=1S/C7H5ClN2S/c8-4-1-2-5-6(3-4)11-7(9)10-5/h1-3H,(H2,9,10)",VMNXKIDUTPOHPO-UHFFFAOYSA-N,?,,200.0,101274
101276,95-26-1,95-26-1,Cc1cc2[n]c(C)[s]c2cc1,"Benzothiazole, 2,5-dimethyl-","Benzothiazole, 2,5-dimethyl-","2,5-dimethyl-1,3-benzothiazole",28569,DTXSID9059121,Cc1cc2[n]c(C)[s]c2cc1,"InChI=1S/C9H9NS/c1-6-3-4-9-8(5-6)10-7(2)11-9/h3-5H,1-2H3",XHANCLXYCNTZMM-UHFFFAOYSA-N,?,,38.0,101276
101277,95-32-9,95-32-9,C1CN(CCO1)SSc1[n]c2ccccc2[s]1,4-Morpholinyl-2-benzothiazole diisulfide,"2-(Morpholin-4-yldithio)-1,3-benzothiazole","2-(morpholin-4-yldisulfanyl)-1,3-benzothiazole",28570,DTXSID2026573,C1CN(CCO1)SSc1[n]c2ccccc2[s]1,"InChI=1S/C11H12N2OS3/c1-2-4-10-9(3-1)12-11(15-10)16-17-13-5-7-14-8-6-13/h1-4H,5-8H2",QRYFCNPYGUORTK-UHFFFAOYSA-N,?,,135.0,101277
101278,95-33-0,95-33-0,C1CCCCC1NSc1[n]c2ccccc2[s]1,N-Cyclohexyl-2-benzothiazolesulfenamide,N-Cyclohexyl-2-benzothiazolesulfenamide,"N-(1,3-benzothiazol-2-ylsulfanyl)cyclohexanamine",28571,DTXSID5020360,C1CCCCC1NSc1[n]c2ccccc2[s]1,"InChI=1S/C13H16N2S2/c1-2-6-10(7-3-1)15-17-13-14-11-8-4-5-9-12(11)16-13/h4-5,8-10,15H,1-3,6-7H2",DEQZTKGFXNUBJL-UHFFFAOYSA-N,?,,98.0,101278
101280,95-45-4,95-45-4,CC(=NO)C(C)=NO,DIMETHYL GLYOXIME,Dimethylglyoxime,"N,N'-dihydroxybutane-2,3-diimine",28573,DTXSID2044393,CC(N=O)C(C)N=O,"InChI=1S/C4H8N2O2/c1-3(5-7)4(2)6-8/h3-4H,1-2H3",WTPHDERCPWEBOS-UHFFFAOYSA-N,?,,245.5,101280
101281,95-46-5,95-46-5,Cc1ccccc1Br,O-BROMOTOLUENE,2-Bromotoluene,1-bromo-2-methylbenzene,28574,DTXSID2024660,Cc1ccccc1Br,"InChI=1S/C7H7Br/c1-6-4-2-3-5-7(6)8/h2-5H,1H3",QSSXJPIWXQTSIX-UHFFFAOYSA-N,?,,-27.8,101281
101282,95-47-6,95-47-6,Cc1ccccc1C,O-XYLENE,o-Xylene,C8H10,28575,DTXSID3021807,Cc1ccccc1C,"InChI=1S/C8H10/c1-7-5-3-4-6-8(7)2/h3-6H,1-2H3",CTQNGGLPUBDAKN-UHFFFAOYSA-N,?,,-25.2,101282
101284,95-49-8,95-49-8,Cc1ccccc1Cl,2-CHLOROTOLUENE,2-Chlorotoluene,1-chloro-2-methylbenzene,28577,DTXSID8023977,Cc1ccccc1Cl,"InChI=1S/C7H7Cl/c1-6-4-2-3-5-7(6)8/h2-5H,1H3",IBSQPLPBRSHTTG-UHFFFAOYSA-N,?,,-35.6,101284
101285,95-50-1,95-50-1,Clc1ccccc1Cl,"1,2-DICHLOROBENZENE","1,2-Dichlorobenzene","1,2-dichlorobenzene",28578,DTXSID6020430,Clc1ccccc1Cl,InChI=1S/C6H4Cl2/c7-5-3-1-2-4-6(5)8/h1-4H,RFFLAFLAYFXFSW-UHFFFAOYSA-N,?,,-16.7,101285
101286,95-51-2,95-51-2,Nc1ccccc1Cl,2-CHLOROANILINE,2-Chloroaniline,2-chloroaniline,28579,DTXSID2021810,Nc1ccccc1Cl,"InChI=1S/C6H6ClN/c7-5-3-1-2-4-6(5)8/h1-4H,8H2",AKCRQHGQIJBRMN-UHFFFAOYSA-N,?,,-14.0,101286
101288,95-53-4,95-53-4,Cc1ccccc1N,O-TOLUIDINE,2-Methylaniline,2-methylaniline,28581,DTXSID1026164,Cc1ccccc1N,"InChI=1S/C7H9N/c1-6-4-2-3-5-7(6)8/h2-5H,8H2,1H3",RNVCVTLRINQCPJ-UHFFFAOYSA-N,?,,-16.3,101288
101289,95-54-5,95-54-5,Nc1ccccc1N,"1,2-BENZENEDIAMINE","1,2-Phenylenediamine","benzene-1,2-diamine",28582,DTXSID3025881,Nc1ccccc1N,"InChI=1S/C6H8N2/c7-5-3-1-2-4-6(5)8/h1-4H,7-8H2",GEYOCULIXLDCMW-UHFFFAOYSA-N,?,,102.5,101289
101290,95-55-6,95-55-6,Nc1ccccc1O,O-AMINOPHENOL,2-Aminophenol,2-aminophenol,28583,DTXSID8024498,Nc1ccccc1O,"InChI=1S/C6H7NO/c7-5-3-1-2-4-6(5)8/h1-4,8H,7H2",CDAWCLOXVUBKRW-UHFFFAOYSA-N,?,,174.0,101290
101292,95-57-8,95-57-8,Oc1ccccc1Cl,2-CHLOROPHENOL,2-Chlorophenol,2-chlorophenol,28585,DTXSID5021544,Oc1ccccc1Cl,"InChI=1S/C6H5ClO/c7-5-3-1-2-4-6(5)8/h1-4,8H",ISPYQTSUDJAMAB-UHFFFAOYSA-N,?,,9.8,101292
101293,95-59-0,95-59-0,ClC1OCCOC1Cl,"1,4-Dioxane, 2,3-dichloro-","2,3-Dichloro-1,4-dioxane","2,3-dichloro-1,4-dioxane",28586,DTXSID2048113,ClC1OCCOC1Cl,"InChI=1S/C4H6Cl2O2/c5-3-4(6)8-2-1-7-3/h3-4H,1-2H2",ZOZUXFQYIYUIND-UHFFFAOYSA-N,?,,30.0,101293
101294,95-63-6,95-63-6,Cc1cc(C)c(C)cc1,"1,2,4-TRIMETHYLBENZENE","1,2,4-Trimethylbenzene","1,2,4-trimethylbenzene",28587,DTXSID6021402,Cc1cc(C)c(C)cc1,"InChI=1S/C9H12/c1-7-4-5-8(2)9(3)6-7/h4-6H,1-3H3",GWHJZXXIDMPWGX-UHFFFAOYSA-N,?,,-43.8,101294
101296,95-65-8,95-65-8,Cc1cc(O)ccc1C,"3,4-DIMETHYLPHENOL","3,4-Dimethylphenol","3,4-dimethylphenol",28589,DTXSID4024062,Cc1cc(O)ccc1C,"InChI=1S/C8H10O/c1-6-3-4-8(9)5-7(6)2/h3-5,9H,1-2H3",YCOXTKKNXUZSKD-UHFFFAOYSA-N,?,,60.8,101296
101297,95-66-9,95-66-9,Cc1cc(C)c(Cl)cc1,"BENZENE, 1-CHLORO-2,4-DIMETHYL-","1-Chloro-2,4-dimethylbenzene",C8H9Cl,28590,DTXSID50335157,Cc1cc(C)c(Cl)cc1,"InChI=1S/C8H9Cl/c1-6-3-4-8(9)7(2)5-6/h3-5H,1-2H3",UIEVCEQLNUHDIF-UHFFFAOYSA-N,?,,-32.5,101297
101298,95-68-1,95-68-1,Cc1cc(C)c(N)cc1,"2,4-DIMETHYLANILINE","2,4-Dimethylaniline","2,4-dimethylaniline",28591,DTXSID8026305,Cc1cc(C)c(N)cc1,"InChI=1S/C8H11N/c1-6-3-4-8(9)7(2)5-6/h3-5H,9H2,1-2H3",CZZZABOKJQXEBO-UHFFFAOYSA-N,?,,-14.3,101298
101300,95-70-5,95-70-5,Cc1cc(N)ccc1N,"2,5-DIAMINOTOLUENE","2-Methyl-1,4-benzenediamine","2-methylbenzene-1,4-diamine",28593,DTXSID6029123,Cc1cc(N)ccc1N,"InChI=1S/C7H10N2/c1-5-4-6(8)2-3-7(5)9/h2-4H,8-9H2,1H3",OBCSAIDCZQSFQH-UHFFFAOYSA-N,?,,64.0,101300
101301,95-71-6,95-71-6,Cc1cc(O)ccc1O,"1,4-BENZENEDIOL, 2-METHYL-",Methylhydroquinone,"2-methylbenzene-1,4-diol",28594,DTXSID4020876,Cc1cc(O)ccc1O,"InChI=1S/C7H8O2/c1-5-4-6(8)2-3-7(5)9/h2-4,8-9H,1H3",CNHDIAIOKMXOLK-UHFFFAOYSA-N,?,,128.0,101301
101302,95-72-7,95-72-7,Cc1cc(Cl)c(C)cc1,"Benzene, 2-chloro-1,4-dimethyl-","Benzene, 2-chloro-1,4-dimethyl-","2-Chloro-1,4-dimethylbenzene",28595,DTXSID9059125,Cc1cc(Cl)c(C)cc1,"InChI=1S/C8H9Cl/c1-6-3-4-7(2)8(9)5-6/h3-5H,1-2H3",KZNRNQGTVRTDPN-UHFFFAOYSA-N,?,,1.6,101302
101304,95-74-9,95-74-9,Cc1ccc(N)cc1Cl,3-CHLORO-P-TOLUIDINE,3-Chloro-4-methylaniline,3-chloro-4-methylaniline,28597,DTXSID0020286,Cc1ccc(N)cc1Cl,"InChI=1S/C7H8ClN/c1-5-2-3-6(9)4-7(5)8/h2-4H,9H2,1H3",RQKFYFNZSHWXAW-UHFFFAOYSA-N,?,,26.0,101304
101305,95-75-0,95-75-0,Cc1cc(Cl)c(Cl)cc1,"3,4-DICHLOROTOLUENE","3,4-Dichlorotoluene","1,2-dichloro-4-methylbenzene",28598,DTXSID2021814,Cc1cc(Cl)c(Cl)cc1,"InChI=1S/C7H6Cl2/c1-5-2-3-6(8)7(9)4-5/h2-4H,1H3",WYUIWKFIFOJVKW-UHFFFAOYSA-N,?,,-15.2,101305
101306,95-76-1,95-76-1,Nc1cc(Cl)c(Cl)cc1,"3,4-DICHLOROANILINE","3,4-Dichloroaniline","3,4-dichloroaniline",28599,DTXSID7021815,Nc1cc(Cl)c(Cl)cc1,"InChI=1S/C6H5Cl2N/c7-5-2-1-4(9)3-6(5)8/h1-3H,9H2",SDYWXFYBZPNOFX-UHFFFAOYSA-N,?,,72.0,101306
101308,95-78-3,95-78-3,Cc1cc(N)c(C)cc1,"2,5-DIMETHYLANILINE","2,5-Dimethylaniline","2,5-dimethylaniline",28601,DTXSID3026306,Cc1cc(N)c(C)cc1,"InChI=1S/C8H11N/c1-6-3-4-7(2)8(9)5-6/h3-5H,9H2,1-2H3",VOWZNBNDMFLQGM-UHFFFAOYSA-N,?,,15.5,101308
101309,95-79-4,95-79-4,Cc1ccc(Cl)cc1N,5-CHLORO-O-TOLUIDINE,5-Chloro-2-methylaniline,5-chloro-2-methylaniline,28602,DTXSID5020287,Cc1ccc(Cl)cc1N,"InChI=1S/C7H8ClN/c1-5-2-3-6(8)4-7(5)9/h2-4H,9H2,1H3",WRZOMWDJOLIVQP-UHFFFAOYSA-N,?,,26.0,101309
101310,95-80-7,95-80-7,Cc1ccc(N)cc1N,"2,4-TOLUENEDIAMINE","2,4-Diaminotoluene","4-methylbenzene-1,3-diamine",28603,DTXSID4020402,Cc1ccc(N)cc1N,"InChI=1S/C7H10N2/c1-5-2-3-6(8)4-7(5)9/h2-4H,8-9H2,1H3",VOZKAJLKRJDJLL-UHFFFAOYSA-N,?,,99.0,101310
101312,95-82-9,95-82-9,Nc1cc(Cl)ccc1Cl,"2,5-DICHLOROANILINE","2,5-Dichloroaniline","2,5-dichloroaniline",28605,DTXSID6024967,Nc1cc(Cl)ccc1Cl,"InChI=1S/C6H5Cl2N/c7-4-1-2-5(8)6(9)3-4/h1-3H,9H2",AVYGCQXNNJPXSS-UHFFFAOYSA-N,?,,50.0,101312
101313,95-83-0,95-83-0,Nc1cc(Cl)ccc1N,"4-CHLORO-1,2-BENZENEDIAMINE","4-Chloro-1,2-diaminobenzene","4-chlorobenzene-1,2-diamine",28606,DTXSID5020283,Nc1cc(Cl)ccc1N,"InChI=1S/C6H7ClN2/c7-4-1-2-5(8)6(9)3-4/h1-3H,8-9H2",BXIXXXYDDJVHDL-UHFFFAOYSA-N,?,,76.0,101313
101314,95-84-1,95-84-1,Cc1ccc(O)c(N)c1,"PHENOL, 2-AMINO-4-METHYL-",2-Amino-4-methylphenol,2-amino-4-methylphenol,28607,DTXSID4024488,Cc1ccc(O)c(N)c1,"InChI=1S/C7H9NO/c1-5-2-3-7(9)6(8)4-5/h2-4,9H,8H2,1H3",ZMXYNJXDULEQCK-UHFFFAOYSA-N,?,,136.0,101314
101316,95-87-4,95-87-4,Cc1cc(O)c(C)cc1,"2,5-DIMETHYLPHENOL","2,5-Dimethylphenol","2,5-dimethylphenol",28609,DTXSID6025145,Cc1cc(O)c(C)cc1,"InChI=1S/C8H10O/c1-6-3-4-7(2)8(9)5-6/h3-5,9H,1-2H3",NKTOLZVEWDHZMU-UHFFFAOYSA-N,?,,74.8,101316
101317,95-88-5,95-88-5,Oc1cc(O)c(Cl)cc1,4-CHLORORESORCINOL,4-Chlororesorcinol,"4-chlorobenzene-1,3-diol",28610,DTXSID8052643,Oc1cc(O)c(Cl)cc1,"InChI=1S/C6H5ClO2/c7-5-2-1-4(8)3-6(5)9/h1-3,8-9H",JQVAPEJNIZULEK-UHFFFAOYSA-N,?,,107.0,101317
101318,95-92-1,95-92-1,CCOC(=O)C(=O)OCC,ETHYL OXALATE,Diethyl oxalate,diethyl ethanedioate,28611,DTXSID2044472,CCOC(=O)C(=O)OCC,"InChI=1S/C6H10O4/c1-3-9-5(7)6(8)10-4-2/h3-4H2,1-2H3",WYACBZDAHNBPPB-UHFFFAOYSA-N,?,,-40.6,101318
101320,95-94-3,95-94-3,Clc1cc(Cl)c(Cl)cc1Cl,"1,2,4,5-TETRACHLOROBENZENE","1,2,4,5-Tetrachlorobenzene","1,2,4,5-tetrachlorobenzene",28613,DTXSID7024320,Clc1cc(Cl)c(Cl)cc1Cl,InChI=1S/C6H2Cl4/c7-3-1-4(8)6(10)2-5(3)9/h1-2H,JHBKHLUZVFWLAG-UHFFFAOYSA-N,?,,139.5,101320
101321,95-95-4,95-95-4,Oc1cc(Cl)c(Cl)cc1Cl,"2,4,5-TRICHLOROPHENOL","2,4,5-Trichlorophenol",C6H3Cl3O,28614,DTXSID4024359,Oc1cc(Cl)c(Cl)cc1Cl,"InChI=1S/C6H3Cl3O/c7-3-1-5(9)6(10)2-4(3)8/h1-2,10H",LHJGJYXLEPZJPM-UHFFFAOYSA-N,?,,69.0,101321
101322,95-96-5,95-96-5,CC1OC(=O)C(C)OC1=O,Dilactide,"3,6-Dimethyl-2,5-dioxo-1,4-dioxane",C6H8O4,28615,DTXSID7041253,CC1OC(=O)C(C)OC1=O,"InChI=1S/C6H8O4/c1-3-5(7)10-4(2)6(8)9-3/h3-4H,1-2H3",JJTUDXZGHPGLLC-UHFFFAOYSA-N,?,,117.5,101322
101324,96-00-4,NOCAS_871581,OC1CCCCCCCCC1=O,Sebacoin,Sebacoin,C10H18O2,28617,DTXSID10871581,OC1CCCCCCCCC1=O,"InChI=1S/C10H18O2/c11-9-7-5-3-1-2-4-6-8-10(9)12/h9,11H,1-8H2",DFGQDTZCEYGOTO-UHFFFAOYSA-N,?,,42.0,101324
101325,96-01-5,96-01-5,O=C1CCCCCCCCC1=O,Sebacil,Sebacil,"cyclodecane-1,2-dione",28618,DTXSID00242064,O=C1CCCCCCCCC1=O,InChI=1S/C10H16O2/c11-9-7-5-3-1-2-4-6-8-10(9)12/h1-8H2,HLPUHEJQIIHQDF-UHFFFAOYSA-N,?,,40.5,101325
101326,96-02-6,96-02-6,O=C1OC(=O)C=C1Cl,"2,5-Furandione, 3-chloro-","2,5-Furandione, 3-chloro-","3-chlorofuran-2,5-dione",28619,DTXSID9059127,O=C1OC(=O)C=C1Cl,InChI=1S/C4HClO3/c5-2-1-3(6)8-4(2)7/h1H,CXJAFLQWMOMYOW-UHFFFAOYSA-N,?,,33.0,101326
101329,96-11-7,96-11-7,BrC(CBr)CBr,"Propane, 1,2,3-tribromo-","Propane, 1,2,3-tribromo-","1,2,3-Tribromopropane",28621,DTXSID9059129,BrC(CBr)CBr,"InChI=1S/C3H5Br3/c4-1-3(6)2-5/h3H,1-2H2",FHCLGDLYRUPKAM-UHFFFAOYSA-N,?,,16.9,101329
101330,96-12-8,96-12-8,ClCC(Br)CBr,"1,2-DIBROMO-3-CHLOROPROPANE","1,2-Dibromo-3-chloropropane","1,2-dibromo-3-chloropropane",28622,DTXSID3020413,ClCC(Br)CBr,"InChI=1S/C3H5Br2Cl/c4-1-3(5)2-6/h3H,1-2H2",WBEJYOJJBDISQU-UHFFFAOYSA-N,?,,6.0,101330
101331,96-14-0,96-14-0,CC(CC)CC,3-METHYLPENTANE,3-Methylpentane,3-methylpentane,28623,DTXSID8052647,CC(CC)CC,"InChI=1S/C6H14/c1-4-6(3)5-2/h6H,4-5H2,1-3H3",PFEOZHBOMNWTJB-UHFFFAOYSA-N,?,,-162.9,101331
101333,96-18-4,96-18-4,ClC(CCl)CCl,"1,2,3-TRICHLOROPROPANE","1,2,3-Trichloropropane","1,2,3-trichloropropane",28625,DTXSID9021390,ClC(CCl)CCl,"InChI=1S/C3H5Cl3/c4-1-3(6)2-5/h3H,1-2H2",CFXQEHVMCRXUSD-UHFFFAOYSA-N,?,,-14.7,101333
101334,96-20-8|13054-87-0,5856-63-3,CC[C@@H](N)CO,"2-Amino-1-butanol, 2-Amino-butan-1-ol",(2R)-2-Aminobutan-1-ol,(2R)-2-aminobutan-1-ol,28626|34811,DTXSID9029275,CCC(N)CO,"InChI=1S/C4H11NO/c1-2-4(5)3-6/h4,6H,2-3,5H2,1H3",JCBPETKZIGVZRE-UHFFFAOYSA-N,?,,-2.0,101334
101335,96-22-0,96-22-0,CCC(=O)CC,3-PENTANONE,3-Pentanone,pentan-3-one,28627,DTXSID6021820,CCC(=O)CC,"InChI=1S/C5H10O/c1-3-5(6)4-2/h3-4H2,1-2H3",FDPIMTJIUBPUKL-UHFFFAOYSA-N,?,,-39.0,101335
101338,96-29-7,96-29-7,CCC(C)=NO,2-BUTANONE OXIME,2-Butanone oxime,N-hydroxybutan-2-imine,28629,DTXSID1021821,CCC(C)N=O,"InChI=1S/C4H9NO/c1-3-4(2)5-6/h4H,3H2,1-2H3",GRFXXWWBAWFSRF-UHFFFAOYSA-N,?,,-29.5,101338
101339,96-31-1,96-31-1,CNC(=O)NC,"DIMETHYLUREA, SYM","N,N'-Dimethylurea","1,3-dimethylurea",28630,DTXSID5025156,CNC(=O)NC,"InChI=1S/C3H8N2O/c1-4-3(6)5-2/h1-2H3,(H2,4,5,6)",MGJKQDOBUOMPEZ-UHFFFAOYSA-N,?,,108.0,101339
101340,96-33-3,96-33-3,COC(=O)C=C,METHYL ACRYLATE,Methyl acrylate,methyl prop-2-enoate,28631,DTXSID0024183,COC(=O)C=C,"InChI=1S/C4H6O2/c1-3-4(5)6-2/h3H,1H2,2H3",BAPJBEWLBFYGME-UHFFFAOYSA-N,?,,-76.5,101340
101342,96-37-7,96-37-7,CC1CCCC1,METHYLCYCLOPENTANE,Methylcyclopentane,methylcyclopentane,28633,DTXSID3025590,CC1CCCC1,"InChI=1S/C6H12/c1-6-4-2-3-5-6/h6H,2-5H2,1H3",GDOPTJXRTPNYNR-UHFFFAOYSA-N,?,,-142.5,101342
101343,96-41-3,96-41-3,OC1CCCC1,CYCLOPENTANOL,Cyclopentanol,cyclopentanol,28634,DTXSID1033371,OC1CCCC1,"InChI=1S/C5H10O/c6-5-3-1-2-4-5/h5-6H,1-4H2",XCIXKGXIYUWCLL-UHFFFAOYSA-N,?,,-19.0,101343
101344,96-43-5,96-43-5,Clc1ccc[s]1,2-CHLOROTHIOPHENE,"Thiophene, 2-chloro-",2-Chlorothiophene,28635,DTXSID8059132,Clc1ccc[s]1,InChI=1S/C4H3ClS/c5-4-2-1-3-6-4/h1-3H,GSFNQBFZFXUTBN-UHFFFAOYSA-N,?,,-71.9,101344
101346,96-48-0,96-48-0,O=C1CCCO1,GAMMA-BUTYROLACTONE,4-Butyrolactone,dihydrofuran-2(3H)-one,28637,DTXSID6020224,O=C1CCCO1,InChI=1S/C4H6O2/c5-4-2-1-3-6-4/h1-3H2,YEJRWHAVMIAJKC-UHFFFAOYSA-N,?,,-43.3,101346
101347,96-49-1,96-49-1,O=C1OCCO1,"1,3-DIOXOLAN-2-ONE","1,3-Dioxolan-2-one","1,3-dioxolan-2-one",28638,DTXSID2026600,O=C1OCCO1,InChI=1S/C3H4O3/c4-3-5-1-2-6-3/h1-2H2,KMTRUDSVKNLOMY-UHFFFAOYSA-N,?,,39.5,101347
101348,96-50-4,96-50-4,Nc1[n]cc[s]1,2-AMINOTHIAZOLE,2-Aminothiazole,"1,3-thiazol-2-amine",28639,DTXSID5024508,Nc1[n]cc[s]1,"InChI=1S/C3H4N2S/c4-3-5-1-2-6-3/h1-2H,(H2,4,5)",RAIPHJJURHTUIC-UHFFFAOYSA-N,?,,93.0,101348
101350,96-62-8,96-62-8,[O-][N+](=O)c1cc(ccc1)S(=O)(=O)NCCNS(=O)(=O)c1cc(ccc1)[N+]([O-])=O,Dinsed,Dinsed,"N,N'-ethane-1,2-diylbis(3-nitrobenzenesulfonamide)",28641,DTXSID3046297,[O-][N+](=O)c1cc(ccc1)S(=O)(=O)NCCNS(=O)(=O)c1cc(ccc1)[N+]([O-])=O,"InChI=1S/C14H14N4O8S2/c19-17(20)11-3-1-5-13(9-11)27(23,24)15-7-8-16-28(25,26)14-6-2-4-12(10-14)18(21)22/h1-6,9-10,15-16H,7-8H2",MMDWBZHWHFGVHF-UHFFFAOYSA-N,?,,190.0,101350
101351,96-64-0,96-64-0,CC(OP(C)(=O)F)C(C)(C)C,SOMAN,Pinacolyl methylphosphonofluoridate,"3,3-dimethylbutan-2-yl methylphosphonofluoridate",28642,DTXSID2031906,CC(OP(C)(=O)F)C(C)(C)C,"InChI=1S/C7H16FO2P/c1-6(7(2,3)4)10-11(5,8)9/h6H,1-5H3",GRXKLBBBQUKJJZ-UHFFFAOYSA-N,?,,-42.0,101351