ChemID,source_casrn,CAS,SMILES,NAME,preferred_name,iupac,MPID,dsstox_substance_id,Canonical_QSARr,InChI_Code_QSARr,InChI Key_QSARr,Salt_Solvent,Salt_Solvent_ID,MP,ID
100856,84-17-3,13029-44-2,C/C=C(/C(=C/C)/c1ccc(O)cc1)\c1ccc(O)cc1,Dienestrol,Dienestrol,"4,4'-(2E,4E)-hexa-2,4-diene-3,4-diyldiphenol",28175,DTXSID20873495,CC=C(C(=CC)c1ccc(O)cc1)c1ccc(O)cc1,"InChI=1S/C18H18O2/c1-3-17(13-5-9-15(19)10-6-13)18(4-2)14-7-11-16(20)12-8-14/h3-12,19-20H,1-2H3/b17-3+,18-4+",NFDFQCUYFHCNBW-SCGPFSFSSA-N,?,,227.5,100856
100858,84-24-2,84-24-2,CCCCCc1c(c(O)cc2OC(=O)c3c(cc(O)cc3CC(=O)CCCCC)Oc12)C(O)=O,Physodic Acid,Physodic acid,"3,9-dihydroxy-6-oxo-7-(2-oxoheptyl)-1-pentylbenzo[b][1,4]benzodioxepine-2-carboxylic acid",28177,DTXSID40232883,CCCCCc1c(c(O)cc2OC(=O)c3c(cc(O)cc3CC(=O)CCCCC)Oc12)C(O)=O,"InChI=1S/C26H30O8/c1-3-5-7-9-16(27)11-15-12-17(28)13-20-22(15)26(32)34-21-14-19(29)23(25(30)31)18(24(21)33-20)10-8-6-4-2/h12-14,28-29H,3-11H2,1-2H3,(H,30,31)",KVTYWHGIZSCFLG-UHFFFAOYSA-N,?,,205.0,100858
100859,84-26-4,84-26-4,O=C1c2ccccc2N=C2c3[nH]c4ccccc4c3CCN21,Rutecarpine,Rutecarpine,,28178,DTXSID00232884,O=C1c2ccccc2N=C2c3[nH]c4ccccc4c3CCN21,"InChI=1S/C18H13N3O/c22-18-13-6-2-4-8-15(13)20-17-16-12(9-10-21(17)18)11-5-1-3-7-14(11)19-16/h1-8,19H,9-10H2",ACVGWSKVRYFWRP-UHFFFAOYSA-N,?,,260.0,100859
100860,84-31-1,NOCAS_871567,COc1cc2c(cc[n]c2cc1)C(=O)C1CC2CCN1CC2C=C,Quininone,QUININONE,C20H22N2O2,28179,DTXSID70871567,COc1cc2c(cc[n]c2cc1)C(=O)C1CC2CCN1CC2C=C,"InChI=1S/C20H22N2O2/c1-3-13-12-22-9-7-14(13)10-19(22)20(23)16-6-8-21-18-5-4-15(24-2)11-17(16)18/h3-6,8,11,13-14,19H,1,7,9-10,12H2,2H3",SRFCUPVBYYAMIL-UHFFFAOYSA-N,?,,108.0,100860
100862,84-37-7|131-03-3|146-48-5,146-48-5|131-03-3,COC(=O)[C@H]1[C@@H](O)CC[C@H]2CN3CCc4c5ccccc5[nH]c4[C@@H]3C[C@@H]21,"Pseudoyohimbine, alpha-Yohimbine, APHRODINE",Yohimbine,"methyl (16alpha,17alpha)-17-hydroxyyohimban-16-carboxylate",28181|29766|29943,DTXSID9040130|DTXSID2045608,COC(=O)C1C(O)CCC2CN3CCc4c5ccccc5[nH]c4C3CC21,"InChI=1S/C21H26N2O3/c1-26-21(25)19-15-10-17-20-14(13-4-2-3-5-16(13)22-20)8-9-23(17)11-12(15)6-7-18(19)24/h2-5,12,15,17-19,22,24H,6-11H2,1H3",BLGXFZZNTVWLAY-UHFFFAOYSA-N,?,,250.8333333333,100862
100863,84-46-8,NOCAS_870407,Nc1cc2c(cc1Cl)C(=O)c1ccccc1C2=O,"9,10-Anthracenedione, 2-amino-3-chloro-",,,28182,DTXSID00870407,Nc1cc2c(cc1Cl)C(=O)c1ccccc1C2=O,"InChI=1S/C14H8ClNO2/c15-11-5-9-10(6-12(11)16)14(18)8-4-2-1-3-7(8)13(9)17/h1-6H,16H2",VMOJFUJVEWWUAV-UHFFFAOYSA-N,?,,281.5,100863
100864,84-47-9,84-47-9,CC(C)(C)c1cc2c(cc1)C(=O)c1ccccc1C2=O,"9,10-Anthracenedione, 2-(1,1-dimethylethyl)-","9,10-Anthracenedione, 2-(1,1-dimethylethyl)-","2-tert-butylanthracene-9,10-dione",28183,DTXSID3058903,CC(C)(C)c1cc2c(cc1)C(=O)c1ccccc1C2=O,"InChI=1S/C18H16O2/c1-18(2,3)11-8-9-14-15(10-11)17(20)13-7-5-4-6-12(13)16(14)19/h4-10H,1-3H3",YTPSFXZMJKMUJE-UHFFFAOYSA-N,?,,99.0,100864
100866,84-54-8,84-54-8,Cc1cc2c(cc1)C(=O)c1ccccc1C2=O,"9,10-Anthracenedione, 2-methyl-",2-Methylanthraquinone,"2-methylanthracene-9,10-dione",28185,DTXSID5041439,Cc1cc2c(cc1)C(=O)c1ccccc1C2=O,"InChI=1S/C15H10O2/c1-9-6-7-12-13(8-9)15(17)11-5-3-2-4-10(11)14(12)16/h2-8H,1H3",NJWGQARXZDRHCD-UHFFFAOYSA-N,?,,177.0,100866
100867,84-55-9,NOCAS_861656,COc1cc2c(cc[n]c2cc1)C(=O)CC[C@@H]1CCNC[C@@H]1C=C,Viquidil,,,28186,DTXSID80861656,COc1cc2c(cc[n]c2cc1)C(=O)CCC1CCNCC1C=C,"InChI=1S/C20H24N2O2/c1-3-14-13-21-10-8-15(14)4-7-20(23)17-9-11-22-19-6-5-16(24-2)12-18(17)19/h3,5-6,9,11-12,14-15,21H,1,4,7-8,10,13H2,2H3",DKRSEIPLAZTSFD-UHFFFAOYSA-N,?,,60.0,100867
100868,84-58-2,NOCAS_870408,N#CC1=C(C#N)C(=O)C(Cl)=C(Cl)C1=O,"2,3-Dichloro-5,6-dicyanobenzoquinone","2,3-Dichloro-5,6-dicyano-p-benzoquinone","2,3-dichloro-5,6-diethynyl-1,4-benzoquinone",28187,DTXSID60870408,N#CC1=C(C#N)C(=O)C(Cl)=C(Cl)C1=O,InChI=1S/C8Cl2N2O2/c9-5-6(10)8(14)4(2-12)3(1-11)7(5)13,HZNVUJQVZSTENZ-UHFFFAOYSA-N,?,,214.5,100868
100870,84-62-8,84-62-8,O=C(Oc1ccccc1)c1ccccc1C(=O)Oc1ccccc1,DIPHENYL PHTHALATE,Diphenyl phthalate,"diphenyl benzene-1,2-dicarboxylate",28189,DTXSID3021778,O=C(Oc1ccccc1)c1ccccc1C(=O)Oc1ccccc1,InChI=1S/C20H14O4/c21-19(23-15-9-3-1-4-10-15)17-13-7-8-14-18(17)20(22)24-16-11-5-2-6-12-16/h1-14H,DWNAQMUDCDVSLT-UHFFFAOYSA-N,?,,73.0,100870
100871,84-65-1,84-65-1,O=C1c2ccccc2C(=O)c2ccccc12,ANTHRAQUINONE,Anthraquinone,"anthracene-9,10-dione",28190,DTXSID3020095,O=C1c2ccccc2C(=O)c2ccccc12,InChI=1S/C14H8O2/c15-13-9-5-1-2-6-10(9)14(16)12-8-4-3-7-11(12)13/h1-8H,RZVHIXYEVGDQDX-UHFFFAOYSA-N,?,,286.0,100871
100872,84-66-2,84-66-2,CCOC(=O)c1ccccc1C(=O)OCC,DIETHYL PHTHALATE,Diethyl phthalate,"diethyl benzene-1,2-dicarboxylate",28191,DTXSID7021780,CCOC(=O)c1ccccc1C(=O)OCC,"InChI=1S/C12H14O4/c1-3-15-11(13)9-7-5-6-8-10(9)12(14)16-4-2/h5-8H,3-4H2,1-2H3",FLKPEMZONWLCSK-UHFFFAOYSA-N,?,,-40.5,100872
100874,84-74-2,84-74-2,CCCCOC(=O)c1ccccc1C(=O)OCCCC,DIBUTYL PHTHALATE,Dibutyl phthalate,"dibutyl benzene-1,2-dicarboxylate",28193,DTXSID2021781,CCCCOC(=O)c1ccccc1C(=O)OCCCC,"InChI=1S/C16H22O4/c1-3-5-11-19-15(17)13-9-7-8-10-14(13)16(18)20-12-6-4-2/h7-10H,3-6,11-12H2,1-2H3",DOIRQSBPFJWKBE-UHFFFAOYSA-N,?,,-35.0,100874
100875,84-75-3,84-75-3,CCCCCCOC(=O)c1ccccc1C(=O)OCCCCCC,DIHEXYL PHTHALATE,Dihexyl phthalate,"dihexyl benzene-1,2-dicarboxylate",28194,DTXSID6025068,CCCCCCOC(=O)c1ccccc1C(=O)OCCCCCC,"InChI=1S/C20H30O4/c1-3-5-7-11-15-23-19(21)17-13-9-10-14-18(17)20(22)24-16-12-8-6-4-2/h9-10,13-14H,3-8,11-12,15-16H2,1-2H3",KCXZNSGUUQJJTR-UHFFFAOYSA-N,?,,-58.0,100875
100876,84-79-7,84-79-7,CC(C)=CCC1=C(O)C(=O)c2ccccc2C1=O,Lapachol,Lapachol,"2-hydroxy-3-(3-methylbut-2-en-1-yl)naphthalene-1,4-dione",28195,DTXSID6049430,CC(C)=CCC1=C(O)C(=O)c2ccccc2C1=O,"InChI=1S/C15H14O3/c1-9(2)7-8-12-13(16)10-5-3-4-6-11(10)14(17)15(12)18/h3-7,18H,8H2,1-2H3",CIEYTVIYYGTCCI-UHFFFAOYSA-N,?,,139.5,100876
100878,84-96-8,84-96-8,CN(C)CC(C)CN1c2ccccc2Sc2ccccc12,TRIMEPRAZINE,Trimeprazine,"N,N,2-trimethyl-3-(10H-phenothiazin-10-yl)propan-1-amine",28197,DTXSID9023708,CN(C)CC(C)CN1c2ccccc2Sc2ccccc12,"InChI=1S/C18H22N2S/c1-14(12-19(2)3)13-20-15-8-4-6-10-17(15)21-18-11-7-5-9-16(18)20/h4-11,14H,12-13H2,1-3H3",ZZHLYYDVIOPZBE-UHFFFAOYSA-N,?,,68.0,100878
100879,84-97-9,84-97-9,CN1CCN(CCCN2c3ccccc3Sc3ccccc23)CC1,PERAZINE,Perazine,10-[3-(4-methylpiperazin-1-yl)propyl]-10H-phenothiazine,28198,DTXSID6048628,CN1CCN(CCCN2c3ccccc3Sc3ccccc23)CC1,"InChI=1S/C20H25N3S/c1-21-13-15-22(16-14-21)11-6-12-23-17-7-2-4-9-19(17)24-20-10-5-3-8-18(20)23/h2-5,7-10H,6,11-16H2,1H3",WEYVCQFUGFRXOM-UHFFFAOYSA-N,?,,52.0,100879
100880,84-99-1,84-99-1,COc1c2C=CC(=O)Oc2cc2OC(C)(C)C=Cc21,Xanthoxyletin,Xanthoxyletin,"5-methoxy-8,8-dimethylpyrano[5,6-g]chromen-2-one",28199,DTXSID70232891,COc1c2C=CC(=O)Oc2cc2OC(C)(C)C=Cc21,"InChI=1S/C15H14O4/c1-15(2)7-6-10-12(19-15)8-11-9(14(10)17-3)4-5-13(16)18-11/h4-8H,1-3H3",JSJIIHRNDMLJGK-UHFFFAOYSA-N,?,,133.0,100880
100882,85-01-8,85-01-8,c1cc2ccccc2c2ccccc21,PHENANTHRENE,Phenanthrene,phenanthrenato,28201,DTXSID6024254,c1cc2ccccc2c2ccccc21,InChI=1S/C14H10/c1-3-7-13-11(5-1)9-10-12-6-2-4-8-14(12)13/h1-10H,YNPNZTXNASCQKK-UHFFFAOYSA-N,?,,99.2,100882
100883,85-02-9,85-02-9,c1cccc2c3ccc[n]c3ccc21,BENZO(F)QUINOLINE,Benzo(f)quinoline,benzo[f]quinoline,28202,DTXSID2024585,c1cccc2c3ccc[n]c3ccc21,InChI=1S/C13H9N/c1-2-5-11-10(4-1)7-8-13-12(11)6-3-9-14-13/h1-9H,HCAUQPZEWLULFJ-UHFFFAOYSA-N,?,,94.0,100883
100884,85-22-3,85-22-3,CCc1c(Br)c(Br)c(Br)c(Br)c1Br,PENTABROMOETHYLBENZENE,"2,3,4,5,6-Pentabromoethylbenzene","1,2,3,4,5-pentabromo-6-ethylbenzene",28203,DTXSID7021782,CCc1c(Br)c(Br)c(Br)c(Br)c1Br,"InChI=1S/C8H5Br5/c1-2-3-4(9)6(11)8(13)7(12)5(3)10/h2H2,1H3",FIAXCDIQXHJNIX-UHFFFAOYSA-N,?,,138.0,100884
100886,85-29-0,85-29-0,O=C(c1ccccc1Cl)c1ccc(Cl)cc1,"Methanone, (2-chlorophenyl)(4-chlorophenyl)-","Methanone, (2-chlorophenyl)(4-chlorophenyl)-",(2-chlorophenyl)-(4-chlorophenyl)methanone,28205,DTXSID6058920,O=C(c1ccccc1Cl)c1ccc(Cl)cc1,InChI=1S/C13H8Cl2O/c14-10-7-5-9(6-8-10)13(16)11-3-1-2-4-12(11)15/h1-8H,YXMYPHLWXBXNFF-UHFFFAOYSA-N,?,,67.0,100886
100887,85-33-6,NOCAS_871569,Cc1:c:c:c(:c:c2-c:1:c:c:c:2C=O)C(C)=C,Lactaroviolin,,,28206,DTXSID90871569,Cc1:c:c:c(:c:c2-c:1:c:c:c:2C=O)C(C)=C,"InChI=1S/C15H14O/c1-10(2)12-5-4-11(3)14-7-6-13(9-16)15(14)8-12/h4-9H,1H2,2-3H3",PUEUPUYRYIOTKZ-UHFFFAOYSA-N,?,,58.0,100887
100888,85-34-7,85-34-7,OC(=O)Cc1c(Cl)c(Cl)ccc1Cl,FENAC,Chlorfenac,"(2,3,6-trichlorophenyl)acetic acid",28207,DTXSID2040284,OC(=O)Cc1c(Cl)c(Cl)ccc1Cl,"InChI=1S/C8H5Cl3O2/c9-5-1-2-6(10)8(11)4(5)3-7(12)13/h1-2H,3H2,(H,12,13)",QZXCCPZJCKEPSA-UHFFFAOYSA-N,?,,161.0,100888
100890,85-41-6,85-41-6,O=C1NC(=O)c2ccccc12,PHTHALIMIDE,Phthalimide,"1H-isoindole-1,3(2H)-dione",28208,DTXSID3026514,O=C1NC(=O)c2ccccc12,"InChI=1S/C8H5NO2/c10-7-5-3-1-2-4-6(5)8(11)9-7/h1-4H,(H,9,10,11)",XKJCHHZQLQNZHY-UHFFFAOYSA-N,?,,238.0,100890
100892,85-44-9,85-44-9,O=C1OC(=O)c2ccccc12,PHTHALIC ANHYDRIDE,Phthalic anhydride,"2-benzofuran-1,3-dione",28209,DTXSID2021159,O=C1OC(=O)c2ccccc12,InChI=1S/C8H4O3/c9-7-5-3-1-2-4-6(5)8(10)11-7/h1-4H,LGRFSURHDFAFJT-UHFFFAOYSA-N,?,,130.8,100892
100895,85-52-9,85-52-9,OC(=O)c1ccccc1C(=O)c1ccccc1,2-Benzoylbenzoic acid,"Benzoic acid, 2-benzoyl-",2-(benzoyl)benzoic acid,28211,DTXSID6058924,OC(=O)c1ccccc1C(=O)c1ccccc1,"InChI=1S/C14H10O3/c15-13(10-6-2-1-3-7-10)11-8-4-5-9-12(11)14(16)17/h1-9H,(H,16,17)",FGTYTUFKXYPTML-UHFFFAOYSA-N,?,,127.0,100895
100896,85-55-2,85-55-2,Cc1ccc(cc1)C(=O)c1ccccc1C(O)=O,"Benzoic acid, 2-(4-methylbenzoyl)-","Benzoic acid, 2-(4-methylbenzoyl)-",2-(4-Methylbenzoyl)benzoic acid,28212,DTXSID6058926,Cc1ccc(cc1)C(=O)c1ccccc1C(O)=O,"InChI=1S/C15H12O3/c1-10-6-8-11(9-7-10)14(16)12-4-2-3-5-13(12)15(17)18/h2-9H,1H3,(H,17,18)",ICQOWIXIHDDXDI-UHFFFAOYSA-N,?,,146.0,100896
100898,85-72-3,85-72-3,Cc1cc(ccc1)NC(=O)c1ccccc1C(O)=O,3'-Methylphthalanilic Acid,3'-Methylphthalanilic acid,2-[(3-methylphenyl)carbamoyl]benzoic acid,28214,DTXSID0041486,Cc1cc(ccc1)NC(=O)c1ccccc1C(O)=O,"InChI=1S/C15H13NO3/c1-10-5-4-6-11(9-10)16-14(17)12-7-2-3-8-13(12)15(18)19/h2-9H,1H3,(H,16,17)(H,18,19)",AZPJXONNBLOZFE-UHFFFAOYSA-N,?,,150.0,100898
100899,85-73-4,85-73-4,OC(=O)c1ccccc1C(=O)Nc1ccc(cc1)S(=O)(=O)Nc1[n]cc[s]1,Phthalylsulfathiazole,Phthalylsulfathiazole,"2-{[4-(1,3-thiazol-2-ylsulfamoyl)phenyl]carbamoyl}benzoic acid",28215,DTXSID8023470,OC(=O)c1ccccc1C(=O)Nc1ccc(cc1)S(=O)(=O)Nc1[n]cc[s]1,"InChI=1S/C17H13N3O5S2/c21-15(13-3-1-2-4-14(13)16(22)23)19-11-5-7-12(8-6-11)27(24,25)20-17-18-9-10-26-17/h1-10H,(H,18,20)(H,19,21)(H,22,23)",PBMSWVPMRUJMPE-UHFFFAOYSA-N,?,,273.0,100899
100900,85-81-4,85-81-4,COc1cc(c2[n]cccc2c1)[N+]([O-])=O,"QUINOLINE, 6-METHOXY-8-NITRO-","Quinoline, 6-methoxy-8-nitro-",6-Methoxy-8-nitroquinoline,28216,DTXSID50234050,COc1cc(c2[n]cccc2c1)[N+]([O-])=O,"InChI=1S/C10H8N2O3/c1-15-8-5-7-3-2-4-11-10(7)9(6-8)12(13)14/h2-6H,1H3",MIMUSZHMZBJBPO-UHFFFAOYSA-N,?,,159.0,100900
100903,85-86-9,85-86-9,Oc1ccc2ccccc2c1/N=N/c1ccc(cc1)/N=N\c1ccccc1,"2-Naphthalenol, 1-  4-(phenylazo)phenyl azo -",C.I. Solvent Red 23,1-[(E)-{4-[(Z)-phenyldiazenyl]phenyl}diazenyl]naphthalen-2-ol,28218,DTXSID3041742,Oc1ccc2ccccc2c1N=Nc1ccc(cc1)N=Nc1ccccc1,"InChI=1S/C22H16N4O/c27-21-15-10-16-6-4-5-9-20(16)22(21)26-25-19-13-11-18(12-14-19)24-23-17-7-2-1-3-8-17/h1-15,27H/b24-23+,26-25+",FHNINJWBTRXEBC-QSZPNPOGSA-N,?,,195.0,100903
100904,85-90-5,85-90-5,CC1=COc2ccccc2C1=O,Tricromyl,Methylchromone,3-methyl-4H-chromen-4-one,28219,DTXSID4057845,CC1=COc2ccccc2C1=O,"InChI=1S/C10H8O2/c1-7-6-12-9-5-3-2-4-8(9)10(7)11/h2-6H,1H3",ABJKIHHNDMEBNA-UHFFFAOYSA-N,?,,68.0,100904
100905,85-91-6,85-91-6,CNc1ccccc1C(=O)OC,"Benzoic acid, 2-(methylamino)-, methyl ester",Methyl 2-(methylamino)benzoate,methyl 2-(methylamino)benzoate,28220,DTXSID1052581,CNc1ccccc1C(=O)OC,"InChI=1S/C9H11NO2/c1-10-8-6-4-3-5-7(8)9(11)12-2/h3-6,10H,1-2H3",GVOWHGSUZUUUDR-UHFFFAOYSA-N,?,,19.0,100905
100908,86-00-0,86-00-0,[O-][N+](=O)c1ccccc1-c1ccccc1,2-Nitrobiphenyl,"2-Nitro-1,1'-biphenyl",2-nitrobiphenyl,28222,DTXSID9025746,[O-][N+](=O)c1ccccc1-c1ccccc1,InChI=1S/C12H9NO2/c14-13(15)12-9-5-4-8-11(12)10-6-2-1-3-7-10/h1-9H,YOJKKXRJMXIKSR-UHFFFAOYSA-N,?,,37.2,100908
100909,86-12-4,86-12-4,CN1CCC(CC1)N(Cc1ccc[s]1)c1ccccc1,Thenaldine,Thenalidine,1-methyl-N-phenyl-N-(thiophen-2-ylmethyl)piperidin-4-amine,28223,DTXSID1048835,CN1CCC(CC1)N(Cc1ccc[s]1)c1ccccc1,"InChI=1S/C17H22N2S/c1-18-11-9-16(10-12-18)19(14-17-8-5-13-20-17)15-6-3-2-4-7-15/h2-8,13,16H,9-12,14H2,1H3",KLOHYVOVXOUKQI-UHFFFAOYSA-N,?,,96.0,100909
100912,86-28-2,86-28-2,CC[n]1c2ccccc2c2ccccc12,N-ETHYLCARBAZOL,9-Ethylcarbazole,9-ethyl-9H-carbazole,28225,DTXSID1052585,CC[n]1c2ccccc2c2ccccc12,"InChI=1S/C14H13N/c1-2-15-13-9-5-3-7-11(13)12-8-4-6-10-14(12)15/h3-10H,2H2,1H3",PLAZXGNBGZYJSA-UHFFFAOYSA-N,?,,68.0,100912
100913,86-29-3,86-29-3,N#CC(c1ccccc1)c1ccccc1,DIPHENYLACETONITRILE,Diphenylacetonitrile,diphenylacetonitrile,28226,DTXSID4020539,N#CC(c1ccccc1)c1ccccc1,"InChI=1S/C14H11N/c15-11-14(12-7-3-1-4-8-12)13-9-5-2-6-10-13/h1-10,14H",NEBPTMCRLHKPOB-UHFFFAOYSA-N,?,,74.3,100913
100914,86-30-6,86-30-6,O=NN(c1ccccc1)c1ccccc1,DIPHENYLNITROSAMINE,N-Nitrosodiphenylamine,N-nitroso-N-phenylaniline,28227,DTXSID6021030,O=NN(c1ccccc1)c1ccccc1,InChI=1S/C12H10N2O/c15-13-14(11-7-3-1-4-8-11)12-9-5-2-6-10-12/h1-10H,UBUCNCOMADRQHX-UHFFFAOYSA-N,?,,66.5,100914
100916,86-35-1,86-35-1,CCN1C(=O)NC(c2ccccc2)C1=O,"2,4-IMIDAZOLIDINEDIONE, 3-ETHYL-5-PHENYL-",Ethotoin,"3-ethyl-5-phenylimidazolidine-2,4-dione",28229,DTXSID6023020,CCN1C(=O)NC(c2ccccc2)C1=O,"InChI=1S/C11H12N2O2/c1-2-13-10(14)9(12-11(13)15)8-6-4-3-5-7-8/h3-7,9H,2H2,1H3,(H,12,15)",SZQIFWWUIBRPBZ-UHFFFAOYSA-N,?,,94.0,100916
100918,86-48-6,86-48-6,Oc1c2ccccc2ccc1C(O)=O,"2-Naphthalenecarboxylic acid, 1-hydroxy-",1-Hydroxy-2-naphthoic acid,1-hydroxynaphthalene-2-carboxylic acid,28230,DTXSID5058937,Oc1c2ccccc2ccc1C(O)=O,"InChI=1S/C11H8O3/c12-10-8-4-2-1-3-7(8)5-6-9(10)11(13)14/h1-6,12H,(H,13,14)",SJJCQDRGABAVBB-UHFFFAOYSA-N,?,,195.0,100918
100919,86-50-0,86-50-0,COP(=S)(OC)SCN1N=Nc2ccccc2C1=O,METHYL AZINPHOS,Azinphos-methyl,"O,O-dimethyl S-[(4-oxo-1,2,3-benzotriazin-3(4H)-yl)methyl] phosphorodithioate",28231,DTXSID3020122,COP(=S)(OC)SCN1N=Nc2ccccc2C1=O,"InChI=1S/C10H12N3O3PS2/c1-15-17(18,16-2)19-7-13-10(14)8-5-3-4-6-9(8)11-12-13/h3-6H,7H2,1-2H3",CJJOSEISRRTUQB-UHFFFAOYSA-N,?,,73.0,100919
100921,86-53-3,86-53-3,N#Cc1cccc2ccccc21,1-Naphthalenecarbonitrile,1-Naphthalenecarbonitrile,Naphthalene-1-carbonitrile,28233,DTXSID4058940,N#Cc1cccc2ccccc21,InChI=1S/C11H7N/c12-8-10-6-3-5-9-4-1-2-7-11(9)10/h1-7H,YJMNOKOLADGBKA-UHFFFAOYSA-N,?,,37.5,100921
100922,86-54-4,86-54-4,NNc1[n][n]cc2ccccc21,HYDRALAZINE,Hydralazine,1-hydrazinylphthalazine,28234,DTXSID4023129,NNc1[n][n]cc2ccccc21,"InChI=1S/C8H8N4/c9-11-8-7-4-2-1-3-6(7)5-10-12-8/h1-5H,9H2,(H,11,12)",RPTUSVTUFVMDQK-UHFFFAOYSA-N,?,,172.5,100922
100924,86-57-7,86-57-7,[O-][N+](=O)c1cccc2ccccc21,1-NITRONAPHTHALENE,1-Nitronaphthalene,1-nitronaphthalene,28235,DTXSID7020978,[O-][N+](=O)c1cccc2ccccc21,InChI=1S/C10H7NO2/c12-11(13)10-7-3-5-8-4-1-2-6-9(8)10/h1-7H,RJKGJBPXVHTNJL-UHFFFAOYSA-N,?,,61.0,100924
100926,86-65-7,86-65-7,Nc1cc2c(cc(cc2cc1)S(O)(=O)=O)S(O)(=O)=O,"2-NAPHTHYLAMINE-6,8-DISULFONIC ACID","1,3-Naphthalenedisulfonic acid, 7-amino-","7-aminonaphthalene-1,3-disulfonic acid",28237,DTXSID4058944,Nc1cc2c(cc(cc2cc1)S(O)(=O)=O)S(O)(=O)=O,"InChI=1S/C10H9NO6S2/c11-7-2-1-6-3-8(18(12,13)14)5-10(9(6)4-7)19(15,16)17/h1-5H,11H2,(H,12,13,14)(H,15,16,17)",CMOLPZZVECHXKN-UHFFFAOYSA-N,?,,274.0,100926
100927,86-73-7,86-73-7,C1c2ccccc2-c2ccccc21,9H-FLUORENE,Fluorene,9H-fluorene,28238,DTXSID8024105,C1c2ccccc2-c2ccccc21,"InChI=1S/C13H10/c1-3-7-12-10(5-1)9-11-6-2-4-8-13(11)12/h1-8H,9H2",NIHNNTQXNPWCJQ-UHFFFAOYSA-N,?,,114.8,100927
100928,86-74-8,86-74-8,c1cccc2[nH]c3ccccc3c21,CARBAZOLE,Carbazole,9H-carbazole,28239,DTXSID4020248,c1cccc2[nH]c3ccccc3c21,"InChI=1S/C12H9N/c1-3-7-11-9(5-1)10-6-2-4-8-12(10)13-11/h1-8,13H",UJOBWOGCFQCDNV-UHFFFAOYSA-N,?,,246.2,100928
100930,86-76-0,86-76-0,Brc1cc2c(cc1)oc1ccccc21,2-BROMODIBENZOFURAN,"Dibenzofuran, 2-bromo- (8CI)(9CI)",2-Bromodibenzofuran,28241,DTXSID20235337,Brc1cc2c(cc1)oc1ccccc21,InChI=1S/C12H7BrO/c13-8-5-6-12-10(7-8)9-3-1-2-4-11(9)14-12/h1-7H,CRJISNQTZDMKQD-UHFFFAOYSA-N,?,,110.0,100930
100931,86-79-3,86-79-3,Oc1cc2[nH]c3ccccc3c2cc1,2-Hydroxycarbazole,2-Hydroxycarbazole,9H-Carbazol-2-ol,28242,DTXSID50235340,Oc1cc2[nH]c3ccccc3c2cc1,"InChI=1S/C12H9NO/c14-8-5-6-10-9-3-1-2-4-11(9)13-12(10)7-8/h1-7,13-14H",GWPGDZPXOZATKL-UHFFFAOYSA-N,?,,271.5,100931
100932,86-80-6,86-80-6,CCCCc1cc2ccccc2c([n]1)OCCN(C)C,Quinisocaine,Dimethisoquin,"2-[(3-butylisoquinolin-1-yl)oxy]-N,N-dimethylethanamine",28243,DTXSID8048525,CCCCc1cc2ccccc2c([n]1)OCCN(C)C,"InChI=1S/C17H24N2O/c1-4-5-9-15-13-14-8-6-7-10-16(14)17(18-15)20-12-11-19(2)3/h6-8,10,13H,4-5,9,11-12H2,1-3H3",XNMYNYSCEJBRPZ-UHFFFAOYSA-N,?,,146.0,100932
100934,86-87-3,86-87-3,OC(=O)Cc1cccc2ccccc21,NAPHTHALENEACETIC ACID,1-Naphthaleneacetic acid,naphthalen-1-ylacetic acid,28245,DTXSID8020915,OC(=O)Cc1cccc2ccccc21,"InChI=1S/C12H10O2/c13-12(14)8-10-6-3-5-9-4-1-2-7-11(9)10/h1-7H,8H2,(H,13,14)",PRPINYUDVPFIRX-UHFFFAOYSA-N,?,,135.0,100934
100935,86-88-4,86-88-4,NC(=S)Nc1cccc2ccccc21,N-1-NAPTHYLTHIOUREA,1-(1-Naphthyl)-2-thiourea,1-naphthalen-1-ylthiourea,28246,DTXSID8020919,NC(=S)Nc1cccc2ccccc21,"InChI=1S/C11H10N2S/c12-11(14)13-10-7-3-5-8-4-1-2-6-9(8)10/h1-7H,(H3,12,13,14)",PIVQQUNOTICCSA-UHFFFAOYSA-N,?,,198.0,100935
100936,86-92-0,86-92-0,Cc1ccc(cc1)N1N=C(C)CC1=O,"3H-Pyrazol-3-one, 2,4-dihydro-5-methyl-2-(4-meth","5-Methyl-2-(4-methylphenyl)-2,4-dihydro-3H-pyrazol-3-one","5-methyl-2-(4-methylphenyl)-2,4-dihydro-3H-pyrazol-3-one",28247,DTXSID6052588,Cc1ccc(cc1)N1N=C(C)CC1=O,"InChI=1S/C11H12N2O/c1-8-3-5-10(6-4-8)13-11(14)7-9(2)12-13/h3-6H,7H2,1-2H3",IOQOLGUXWSBWHR-UHFFFAOYSA-N,?,,137.5,100936
100939,86-98-6,86-98-6,Clc1cc2[n]ccc(Cl)c2cc1,"QUINOLINE, 4,7-DICHLORO-","4,7-Dichloroquinoline","4,7-dichloroquinoline",28249,DTXSID0052590,Clc1cc2[n]ccc(Cl)c2cc1,InChI=1S/C9H5Cl2N/c10-6-1-2-7-8(11)3-4-12-9(7)5-6/h1-5H,HXEWMTXDBOQQKO-UHFFFAOYSA-N,?,,93.0,100939
100940,87-00-3,87-00-3,"CN1[C@@H]2C[C@H](C[C@H]1CC2)OC(=O)C(O)c1ccccc1 |&1:2,4,6|",HOMATROPIN,dl-Homatropine,C16H21NO3,28250,DTXSID6044014,CN1C2CC(CC1CC2)OC(=O)C(O)c1ccccc1,"InChI=1S/C16H21NO3/c1-17-12-7-8-13(17)10-14(9-12)20-16(19)15(18)11-5-3-2-4-6-11/h2-6,12-15,18H,7-10H2,1H3",ZTVIKZXZYLEVOL-UHFFFAOYSA-N,?,,99.5,100940
100941,87-10-5,87-10-5,Oc1c(cc(Br)cc1Br)C(=O)Nc1ccc(Br)cc1,Tribromsalan,Tribromsalan,"3,5-dibromo-N-(4-bromophenyl)-2-hydroxybenzamide",28251,DTXSID4026181,Oc1c(cc(Br)cc1Br)C(=O)Nc1ccc(Br)cc1,"InChI=1S/C13H8Br3NO2/c14-7-1-3-9(4-2-7)17-13(19)10-5-8(15)6-11(16)12(10)18/h1-6,18H,(H,17,19)",KVSKGMLNBAPGKH-UHFFFAOYSA-N,?,,227.0,100941
100943,87-17-2,87-17-2,Oc1ccccc1C(=O)Nc1ccccc1,SALICYLANILIDE,Salicylanilide,2-hydroxy-N-phenylbenzamide,28253,DTXSID7021784,Oc1ccccc1C(=O)Nc1ccccc1,"InChI=1S/C13H11NO2/c15-12-9-5-4-8-11(12)13(16)14-10-6-2-1-3-7-10/h1-9,15H,(H,14,16)",WKEDVNSFRWHDNR-UHFFFAOYSA-N,?,,136.5,100943
100944,87-18-3,87-18-3,CC(C)(C)c1ccc(cc1)OC(=O)c1ccccc1O,4-(t-butyl)phenyl 2-hydroxybenzoate,4-tert-Butylphenyl salicylate,4-tert-butylphenyl 2-hydroxybenzoate,28254,DTXSID9037745,CC(C)(C)c1ccc(cc1)OC(=O)c1ccccc1O,"InChI=1S/C17H18O3/c1-17(2,3)12-8-10-13(11-9-12)20-16(19)14-6-4-5-7-15(14)18/h4-11,18H,1-3H3",DBOSBRHMHBENLP-UHFFFAOYSA-N,?,,62.0,100944
100945,87-19-4,87-19-4,CC(C)COC(=O)c1ccccc1O,"Benzoic acid, 2-hydroxy-, 2-methylpropyl ester",Isobutyl salicylate,2-methylpropyl 2-hydroxybenzoate,28255,DTXSID3047186,CC(C)COC(=O)c1ccccc1O,"InChI=1S/C11H14O3/c1-8(2)7-14-11(13)9-5-3-4-6-10(9)12/h3-6,8,12H,7H2,1-2H3",PTXDBYSCVQQBNF-UHFFFAOYSA-N,?,,5.9,100945
100947,87-28-5,87-28-5,Oc1ccccc1C(=O)OCCO,"Benzoic acid, 2-hydroxy-, 2-hydroxyethyl ester",2-Hydroxyethyl salicylate,2-hydroxyethyl 2-hydroxybenzoate,28257,DTXSID4048987,Oc1ccccc1C(=O)OCCO,"InChI=1S/C9H10O4/c10-5-6-13-9(12)7-3-1-2-4-8(7)11/h1-4,10-11H,5-6H2",LVYLCBNXHHHPSB-UHFFFAOYSA-N,?,,37.0,100947
100948,87-29-6,87-29-6,Nc1ccccc1C(=O)OCC=Cc1ccccc1,Cinnamyl Anthranilate,Cinnamyl anthranilate,C16H15NO2,28258,DTXSID3020330,Nc1ccccc1C(=O)OCC=Cc1ccccc1,"InChI=1S/C16H15NO2/c17-15-11-5-4-10-14(15)16(18)19-12-6-9-13-7-2-1-3-8-13/h1-11H,12,17H2/b9-6+",GABQNAFEZZDSCM-RMKNXTFCSA-N,?,,61.0,100948