ChemID,source_casrn,CAS,SMILES,NAME,preferred_name,iupac,MPID,dsstox_substance_id,Canonical_QSARr,InChI_Code_QSARr,InChI Key_QSARr,Salt_Solvent,Salt_Solvent_ID,MP,ID
104283,583-75-5,583-75-5,Cc1cc(Br)ccc1N,"Benzenamine, 4-bromo-2-methyl-","Benzenamine, 4-bromo-2-methyl-",4-Bromo-2-methylaniline,31326,DTXSID6060399,Cc1cc(Br)ccc1N,"InChI=1S/C7H8BrN/c1-5-4-6(8)2-3-7(5)9/h2-4H,9H2,1H3",PCHYYOCUCGCSBU-UHFFFAOYSA-N,?,,59.5,104283
104288,584-70-3,584-70-3,Cc1ccccc1NC(=O)c1ccccc1,N-o-Tolyl-benzamide,2'-Methylbenzanilide,N-(2-Methylphenyl)benzamide,31329,DTXSID00207113,Cc1ccccc1NC(=O)c1ccccc1,"InChI=1S/C14H13NO/c1-11-7-5-6-10-13(11)15-14(16)12-8-3-2-4-9-12/h2-10H,1H3,(H,15,16)",BSASAHDKONAXQX-UHFFFAOYSA-N,?,,145.5,104288
104292,584-92-9,584-92-9,CC(=O)C(CCCCC)=NO,"Octane-2,3-dione 3-oxime",,,31333,DTXSID20879250,CCCCCC(N=O)C(C)=O,"InChI=1S/C8H15NO2/c1-3-4-5-6-8(9-11)7(2)10/h8H,3-6H2,1-2H3",WCZYVSXLBIMGAC-UHFFFAOYSA-N,?,,59.0,104292
104297,585-68-2,NOCAS_870636,OC(=O)C1CC(=O)OC=1,"5-Oxo-4,5-dihydro-furan-3-carboxylic acid",,,31337,DTXSID70870636,OC(=O)C1CC(=O)OC=1,"InChI=1S/C5H4O4/c6-4-1-3(2-9-4)5(7)8/h2H,1H2,(H,7,8)",DRMYLINAGHHBNG-UHFFFAOYSA-N,?,,164.0,104297
104303,586-11-8,586-11-8,[O-][N+](=O)c1cc(O)cc(c1)[N+]([O-])=O,"3,5-DINITROPHENOL","Phenol, 3,5-dinitro-","3,5-DINITROPHENOL",31341,DTXSID80207318,[O-][N+](=O)c1cc(O)cc(c1)[N+]([O-])=O,"InChI=1S/C6H4N2O5/c9-6-2-4(7(10)11)1-5(3-6)8(12)13/h1-3,9H",UEMBNLWZFIWQFL-UHFFFAOYSA-N,?,,125.1,104303
104307,586-61-8,586-61-8,CC(C)c1ccc(Br)cc1,1-ISOPROPYL-4-BROMOBENZENE,p-Bromocumene,1-bromo-4-propan-2-ylbenzene,31344,DTXSID7060411,CC(C)c1ccc(Br)cc1,"InChI=1S/C9H11Br/c1-7(2)8-3-5-9(10)6-4-8/h3-7H,1-2H3",MOZHUOIQYVYEPN-UHFFFAOYSA-N,?,,-22.5,104307
104311,586-78-7,586-78-7,[O-][N+](=O)c1ccc(Br)cc1,4-BROMO-1-NITROBENZENE,"Benzene, 1-bromo-4-nitro-",1-Bromo-4-nitrobenzene,31348,DTXSID7060415,[O-][N+](=O)c1ccc(Br)cc1,InChI=1S/C6H4BrNO2/c7-5-1-3-6(4-2-5)8(9)10/h1-4H,ZDFBKZUDCQQKAC-UHFFFAOYSA-N,?,,127.0,104311
104315,587-02-0,587-02-0,CCc1cccc(N)c1,m-Ethylaniline,3-Ethylaniline,3-ethylaniline,31352,DTXSID1051434,CCc1cccc(N)c1,"InChI=1S/C8H11N/c1-2-7-4-3-5-8(9)6-7/h3-6H,2,9H2,1H3",AMKPQMFZCBTTAT-UHFFFAOYSA-N,?,,-64.0,104315
104319,588-07-8,588-07-8,CC(=O)Nc1cccc(Cl)c1,3-CHLOROACETANILIDE,"Acetamide, N-(3-chlorophenyl)-",N-(3-Chlorophenyl)acetamide,31355,DTXSID6060420,CC(=O)Nc1cccc(Cl)c1,"InChI=1S/C8H8ClNO/c1-6(11)10-8-4-2-3-7(9)5-8/h2-5H,1H3,(H,10,11)",MUUQHCOAOLLHIL-UHFFFAOYSA-N,?,,80.0,104319
104325,588-63-6,588-63-6,BrCCCOc1ccccc1,"Benzene, (3-bromopropoxy)-","Benzene, (3-bromopropoxy)-",3-bromopropoxybenzene,31359,DTXSID1060425,BrCCCOc1ccccc1,"InChI=1S/C9H11BrO/c10-7-4-8-11-9-5-2-1-3-6-9/h1-3,5-6H,4,7-8H2",NIDWUZTTXGJFNN-UHFFFAOYSA-N,?,,10.7,104325
104329,589-16-2,589-16-2,CCc1ccc(N)cc1,P-ETHYLANILINE,4-Ethylaniline,4-ethylaniline,31363,DTXSID0022066,CCc1ccc(N)cc1,"InChI=1S/C8H11N/c1-2-7-3-5-8(9)6-4-7/h3-6H,2,9H2,1H3",HRXZRAXKKNUKRF-UHFFFAOYSA-N,?,,-4.8,104329
104333,589-29-7,589-29-7,OCc1ccc(CO)cc1,"1,4-Benzenedimethanol","1,4-Benzenedimethanol",[4-(hydroxymethyl)phenyl]methanol,31367,DTXSID1060427,OCc1ccc(CO)cc1,"InChI=1S/C8H10O2/c9-5-7-1-2-8(6-10)4-3-7/h1-4,9-10H,5-6H2",BWVAOONFBYYRHY-UHFFFAOYSA-N,?,,117.5,104333
104337,589-55-9,589-55-9,CCCC(O)CCC,4-HEPTANOL,4-Heptanol,Heptan-4-ol,31371,DTXSID1060429,CCCC(O)CCC,"InChI=1S/C7H16O/c1-3-5-7(8)6-4-2/h7-8H,3-6H2,1-2H3",YVBCULSIZWMTFY-UHFFFAOYSA-N,?,,-41.2,104337
104341,589-90-2,589-90-2,CC1CCC(C)CC1,"1,4-DIMETHYLCYCLOHEXANE","Cyclohexane, 1,4-dimethyl-","1,4-Dimethylcyclohexane",31375,DTXSID5075284,CC1CCC(C)CC1,"InChI=1S/C8H16/c1-7-3-5-8(2)6-4-7/h7-8H,3-6H2,1-2H3",QRMPKOFEUHIBNM-UHFFFAOYSA-N,?,,-87.0,104341
104345,590-01-2,590-01-2,CCCCOC(=O)CC,N-BUTYL PROPIONATE,Butyl propionate,butyl propanoate,31379,DTXSID5027223,CCCCOC(=O)CC,"InChI=1S/C7H14O2/c1-3-5-6-9-7(8)4-2/h3-6H2,1-2H3",BTMVHUNTONAYDX-UHFFFAOYSA-N,?,,-89.0,104345
104352,590-29-4,590-29-4,[K+].[O-]C=O,Potassium Formate,"Formic acid, potassium salt",potassium formate,31385,DTXSID6029626,OC=O,"InChI=1S/CH2O2/c2-1-3/h1H,(H,2,3)",BDAGIHXWWSANSR-UHFFFAOYSA-N,[K+],198.0,167.0,104352
104356,590-46-5,590-46-5,[Cl-].C[N+](C)(C)CC(O)=O,ACIDINE,Betaine hydrochloride,"carboxy-N,N,N-trimethylmethanaminium chloride",31389,DTXSID0044446,C[N+](C)(C)CC(O)=O,"InChI=1S/C5H11NO2/c1-6(2,3)4-5(7)8/h4H2,1-3H3/p+1",KWIUHFFTVRNATP-UHFFFAOYSA-O,[Cl-],18179.0,241.5,104356
104360,590-67-0,590-67-0,CC1(O)CCCCC1,1-METHYLCYCLOHEXANOL,1-Methylcyclohexanol,1-methylcyclohexan-1-ol,31393,DTXSID00207739,CC1(O)CCCCC1,"InChI=1S/C7H14O/c1-7(8)5-3-2-4-6-7/h8H,2-6H2,1H3",VTBOTOBFGSVRMA-UHFFFAOYSA-N,?,,25.0,104360
104364,590-93-2,590-93-2,CC#CC(O)=O,2-Butynoic acid,2-Butynoic acid,but-2-ynoic acid,31397,DTXSID4060444,CC#CC(O)=O,"InChI=1S/C4H4O2/c1-2-3-4(5)6/h1H3,(H,5,6)",LUEHNHVFDCZTGL-UHFFFAOYSA-N,?,,78.0,104364
104368,591-17-3,591-17-3,Cc1cc(Br)ccc1,M-BROMOTOLUENE,3-Bromotoluene,1-bromo-3-methylbenzene,31401,DTXSID3024659,Cc1cc(Br)ccc1,"InChI=1S/C7H7Br/c1-6-3-2-4-7(8)5-6/h2-5H,1H3",WJIFKOVZNJTSGO-UHFFFAOYSA-N,?,,-39.8,104368
104372,591-22-0,591-22-0,Cc1c[n]cc(C)c1,"3,5-DIMETHYLPYRIDINE","3,5-Dimethylpyridine","3,5-dimethylpyridine",31405,DTXSID5052254,Cc1c[n]cc(C)c1,"InChI=1S/C7H9N/c1-6-3-7(2)5-8-4-6/h3-5H,1-2H3",HWWYDZCSSYKIAD-UHFFFAOYSA-N,?,,-6.6,104372
104380,591-62-8,1114-71-2,CCN(CCCC)C(=O)SCCC,TILLAM,Pebulate,S-propyl butyl(ethyl)carbamothioate,31412,DTXSID8021199,CCN(CCCC)C(=O)SCCC,"InChI=1S/C10H21NOS/c1-4-7-8-11(6-3)10(12)13-9-5-2/h4-9H2,1-3H3",SGEJQUSYQTVSIU-UHFFFAOYSA-N,?,,-22.0,104380
104384,591-80-0,591-80-0,C=CCCC(O)=O,4-Pentenoic acid,4-Pentenoic acid,pent-4-enoic acid,31416,DTXSID0044448,C=CCCC(O)=O,"InChI=1S/C5H8O2/c1-2-3-4-5(6)7/h2H,1,3-4H2,(H,6,7)",HVAMZGADVCBITI-UHFFFAOYSA-N,?,,-22.5,104384
104388,592-13-2,592-13-2,CC(C)CCC(C)C,"2,5-DIMETHYLHEXANE","2,5-Dimethylhexane","2,5-Dimethylhexane",31420,DTXSID4073201,CC(C)CCC(C)C,"InChI=1S/C8H18/c1-7(2)5-6-8(3)4/h7-8H,5-6H2,1-4H3",UWNADWZGEHDQAB-UHFFFAOYSA-N,?,,-91.0,104388
104392,592-41-6,592-41-6,CCCCC=C,1-HEXENE,1-Hexene,hex-1-ene,31424,DTXSID4025402,CCCCC=C,"InChI=1S/C6H12/c1-3-5-6-4-2/h3H,1,4-6H2,2H3",LIKMAJRDDDTEIG-UHFFFAOYSA-N,?,,-139.7,104392
104396,592-47-2|7642-09-3|13269-52-8,592-47-2,CCC=CCC,"3-HEXENE, 3-HEXENE, (Z)-, trans-3-Hexene",3-Hexene,?,31428|34729|34823,DTXSID9073202,CCC=CCC,"InChI=1S/C6H12/c1-3-5-6-4-2/h5-6H,3-4H2,1-2H3/b6-5+",ZQDPJFUHLCOCRG-AATRIKPKSA-N,?,,-114.4,104396
104400,592-76-7,592-76-7,CCCCCC=C,1-HEPTENE,1-Heptene,hept-1-ene,31432,DTXSID2060466,CCCCCC=C,"InChI=1S/C7H14/c1-3-5-7-6-4-2/h3H,1,4-7H2,2H3",ZGEGCLOFRBLKSE-UHFFFAOYSA-N,?,,-119.7,104400
104404,593-03-3,NOCAS_870645,CCCCCCCCCCCCCC(O)CC,Hexadecan-3-ol,,,31436,DTXSID60870645,CCCCCCCCCCCCCC(O)CC,"InChI=1S/C16H34O/c1-3-5-6-7-8-9-10-11-12-13-14-15-16(17)4-2/h16-17H,3-15H2,1-2H3",ACDUHTSVVVHMGU-UHFFFAOYSA-N,?,,50.0,104404
104408,593-49-7,593-49-7,CCCCCCCCCCCCCCCCCCCCCCCCCCC,HEPTACOSANE,Heptacosane,Heptacosane,31440,DTXSID6058637,CCCCCCCCCCCCCCCCCCCCCCCCCCC,"InChI=1S/C27H56/c1-3-5-7-9-11-13-15-17-19-21-23-25-27-26-24-22-20-18-16-14-12-10-8-6-4-2/h3-27H2,1-2H3",BJQWYEJQWHSSCJ-UHFFFAOYSA-N,?,,59.5,104408
104412,593-53-3,593-53-3,CF,FLUOROMETHANE,HFC-41,Fluoromethane,31444,DTXSID6060474,CF,InChI=1S/CH3F/c1-2/h1H3,NBVXSUQYWXRMNV-UHFFFAOYSA-N,?,,-141.8,104412
104417,593-75-9,593-75-9,[C-]#[N+]C,METHYL ISOCYANIDE,Methyl isocyanide,Isocyanomethane,31448,DTXSID3075040,C[N+]#C,"InChI=1S/C2H4N/c1-3-2/h1H,2H3/q+1",KVMHGXYFIRJLAX-UHFFFAOYSA-N,?,,-45.0,104417
104423,593-98-6,NOCAS_870651,FC(Cl)Br,"METHANE, BROMOCHLOROFLUORO-",,,31452,DTXSID70870651,FC(Cl)Br,InChI=1S/CHBrClF/c2-1(3)4/h1H,YNKZSBSRKWVMEZ-UHFFFAOYSA-N,?,,-115.0,104423
104428,594-15-0,594-15-0,ClC(Br)(Br)Br,tribromochloromethane,Tribromochloromethane,tribromo(chloro)methane,31456,DTXSID0024347,ClC(Br)(Br)Br,"InChI=1S/CBr3Cl/c2-1(3,4)5",GKXZMEXQUWZGJK-UHFFFAOYSA-N,?,,55.0,104428
104435,594-36-5,594-36-5,CCC(C)(C)Cl,"BUTANE, 2-CHLORO-2-METHYL-","Butane, 2-chloro-2-methyl-",2-Chloro-2-methylbutane,31460,DTXSID0060484,CCC(C)(C)Cl,"InChI=1S/C5H11Cl/c1-4-5(2,3)6/h4H2,1-3H3",CRNIHJHMEQZAAS-UHFFFAOYSA-N,?,,-73.5,104435
104439,594-51-4,NOCAS_870654,CC(Br)C(C)(C)Br,"2,3-Dibromo-2-methyl-butane",,,31464,DTXSID50870654,CC(Br)C(C)(C)Br,"InChI=1S/C5H10Br2/c1-4(6)5(2,3)7/h4H,1-3H3",XLTWAJQKAGLQDX-UHFFFAOYSA-N,?,,7.0,104439
104443,594-61-6,594-61-6,CC(C)(O)C(O)=O,A-HYDROXY-I-BUTYRIC ACID,2-Hydroxyisobutyric acid,2-hydroxy-2-methylpropanoic acid,31468,DTXSID4032954,CC(C)(O)C(O)=O,"InChI=1S/C4H8O3/c1-4(2,7)3(5)6/h7H,1-2H3,(H,5,6)",BWLBGMIXKSTLSX-UHFFFAOYSA-N,?,,82.5,104443
104447,594-83-2,594-83-2,CC(C)(C)C(C)(C)O,"2,3,3,-TRIMETHYL-2-BUTANOL","2-Butanol, 2,3,3-trimethyl- (8CI)(9CI)","2,3,3-trimethylbutan-2-ol",31472,DTXSID40208129,CC(C)(C)C(C)(C)O,"InChI=1S/C7H16O/c1-6(2,3)7(4,5)8/h8H,1-5H3",OKXVARYIKDXAEO-UHFFFAOYSA-N,?,,17.0,104447
104452,595-39-1,NOCAS_870655,CC[C@](C)(N)C(O)=O,DL-Isovaline,,,31476,DTXSID10870655,CCC(C)(N)C(O)=O,"InChI=1S/C5H11NO2/c1-3-5(2,6)4(7)8/h3,6H2,1-2H3,(H,7,8)",GCHPUFAZSONQIV-UHFFFAOYSA-N,?,,316.5,104452
104458,596-01-0,596-01-0,Oc1ccc(c2ccccc12)C1(OC(=O)c2ccccc12)c1ccc(O)c2ccccc21,a-Naphtholphthalein,Naphtholphthalein,"3,3-bis(4-hydroxynaphthalen-1-yl)-2-benzofuran-1-one",31480,DTXSID70208273,Oc1ccc(c2ccccc12)C1(OC(=O)c2ccccc12)c1ccc(O)c2ccccc21,"InChI=1S/C28H18O4/c29-25-15-13-23(17-7-1-3-9-19(17)25)28(22-12-6-5-11-21(22)27(31)32-28)24-14-16-26(30)20-10-4-2-8-18(20)24/h1-16,29-30H",HQHBAGKIEAOSNM-UHFFFAOYSA-N,?,,254.0,104458
104462,596-43-0,596-43-0,BrC(c1ccccc1)(c1ccccc1)c1ccccc1,"Benzene, 1,1',1''-(bromomethylidyne)tris-",Bromotriphenylmethane,[bromo-di(phenyl)methyl]benzene,31484,DTXSID4060494,BrC(c1ccccc1)(c1ccccc1)c1ccccc1,"InChI=1S/C19H15Br/c20-19(16-10-4-1-5-11-16,17-12-6-2-7-13-17)18-14-8-3-9-15-18/h1-15H",NZHXEWZGTQSYJM-UHFFFAOYSA-N,?,,153.0,104462
104468,597-49-9,597-49-9,CCC(O)(CC)CC,3-ETHYL-3-PENTANOL,"3-Pentanol, 3-ethyl-",3-Ethylpentan-3-ol,31488,DTXSID9060497,CCC(O)(CC)CC,"InChI=1S/C7H16O/c1-4-7(8,5-2)6-3/h8H,4-6H2,1-3H3",XKIRHOWVQWCYBT-UHFFFAOYSA-N,?,,-12.5,104468
104474,598-04-9,598-04-9,CCCCS(=O)(=O)CCCC,"Butane, 1,1'-sulfonylbis-","Butane, 1,1'-sulfonylbis-",1-butylsulfonylbutane,31492,DTXSID1060502,CCCCS(=O)(=O)CCCC,"InChI=1S/C8H18O2S/c1-3-5-7-11(9,10)8-6-4-2/h3-8H2,1-2H3",AIDFJGKWTOULTC-UHFFFAOYSA-N,?,,45.0,104474
104478,598-31-2,598-31-2,CC(=O)CBr,1-BROMO-2-PROPANONE,Bromoacetone,1-bromopropan-2-one,31496,DTXSID6060507,CC(=O)CBr,"InChI=1S/C3H5BrO/c1-3(5)2-4/h2H2,1H3",VQFAIAKCILWQPZ-UHFFFAOYSA-N,?,,-36.5,104478
104482,598-56-1,598-56-1,CCN(C)C,ETHYL DIMETHYLAMINE,"N,N-Dimethylethylamine","N,N-dimethylethanamine",31500,DTXSID4027232,CCN(C)C,"InChI=1S/C4H11N/c1-4-5(2)3/h4H2,1-3H3",DAZXVJBJRMWXJP-UHFFFAOYSA-N,?,,-140.0,104482
104487,598-79-8,598-79-8,C=C(Cl)C(O)=O,"2-Propenoic acid, 2-chloro-",2-Chloroacrylic acid,2-chloroprop-2-enoic acid,31504,DTXSID5060514,C=C(Cl)C(O)=O,"InChI=1S/C3H3ClO2/c1-2(4)3(5)6/h1H2,(H,5,6)",SZTBMYHIYNGYIA-UHFFFAOYSA-N,?,,66.0,104487
104492,598-99-2,598-99-2,COC(=O)C(Cl)(Cl)Cl,METHYL TRICHLOROACETATE,"Acetic acid, 2,2,2-trichloro-, methyl ester","methyl 2,2,2-trichloroacetate",31508,DTXSID0060517,COC(=O)C(Cl)(Cl)Cl,"InChI=1S/C3H3Cl3O2/c1-8-2(7)3(4,5)6/h1H3",VHFUHRXYRYWELT-UHFFFAOYSA-N,?,,-17.5,104492
104496,599-61-1,599-61-1,Nc1cc(ccc1)S(=O)(=O)c1cc(N)ccc1,"Benzenamine, 3,3'-sulfonylbis-","3,3'-Sulphonyldianiline","3,3'-sulfonyldianiline",31512,DTXSID3044962,Nc1cc(ccc1)S(=O)(=O)c1cc(N)ccc1,"InChI=1S/C12H12N2O2S/c13-9-3-1-5-11(7-9)17(15,16)12-6-2-4-10(14)8-12/h1-8H,13-14H2",LJGHYPLBDBRCRZ-UHFFFAOYSA-N,?,,171.5,104496
104500,599-88-2,599-88-2,Cc1c[n]c(NS(=O)(=O)c2ccc(N)cc2)[n]c1,SULFAPERINE,Sulfaperin,4-amino-N-(5-methylpyrimidin-2-yl)benzenesulfonamide,31516,DTXSID2057782,Cc1c[n]c(NS(=O)(=O)c2ccc(N)cc2)[n]c1,"InChI=1S/C11H12N4O2S/c1-8-6-13-11(14-7-8)15-18(16,17)10-4-2-9(12)3-5-10/h2-7H,12H2,1H3,(H,13,14,15)",DZQVFHSCSRACSX-UHFFFAOYSA-N,?,,262.5,104500
104505,600-18-0,600-18-0,CCC(=O)C(O)=O,"Butanoic acid, 2-oxo-",2-Oxobutyric acid,2-oxobutanoic acid,31520,DTXSID9060524,CCC(=O)C(O)=O,"InChI=1S/C4H6O3/c1-2-3(5)4(6)7/h2H2,1H3,(H,6,7)",TYEYBOSBBBHJIV-UHFFFAOYSA-N,?,,33.0,104505
104509,601-84-3,NOCAS_870668,OC(=O)c1c(Br)cccc1Br,"Benzoic acid, 2,6-dibromo-",,,31524,DTXSID40870668,OC(=O)c1c(Br)cccc1Br,"InChI=1S/C7H4Br2O2/c8-4-2-1-3-5(9)6(4)7(10)11/h1-3H,(H,10,11)",HQLOEBRPCVIFCT-UHFFFAOYSA-N,?,,150.5,104509
104513,602-09-5,602-09-5,Oc1ccc2ccccc2c1-c1c2ccccc2ccc1O,"(1,1'-Binaphthalene)-2,2'-diol","[1,1'-Binaphthalene]-2,2'-diol",1-(2-hydroxynaphthalen-1-yl)naphthalen-2-ol,31528,DTXSID9060526,Oc1ccc2ccccc2c1-c1c2ccccc2ccc1O,"InChI=1S/C20H14O2/c21-17-11-9-13-5-1-3-7-15(13)19(17)20-16-8-4-2-6-14(16)10-12-18(20)22/h1-12,21-22H",PPTXVXKCQZKFBN-UHFFFAOYSA-N,?,,215.5,104513
104517,602-38-0,602-38-0,[O-][N+](=O)c1cccc2cccc(c21)[N+]([O-])=O,"NAPHTHALENE, 1,8-DINITRO-","1,8-Dinitronaphthalene","1,8-dinitronaphthalene",31532,DTXSID9025166,[O-][N+](=O)c1cccc2cccc(c21)[N+]([O-])=O,InChI=1S/C10H6N2O4/c13-11(14)8-5-1-3-7-4-2-6-9(10(7)8)12(15)16/h1-6H,AVCSMMMOCOTIHF-UHFFFAOYSA-N,?,,173.0,104517
104521,602-64-2,602-64-2,Oc1cc2c(C(=O)c3ccccc3C2=O)c(O)c1O,Anthragallol,Anthragallol,"1,2,3-trihydroxyanthracene-9,10-dione",31536,DTXSID80208946,Oc1cc2c(C(=O)c3ccccc3C2=O)c(O)c1O,"InChI=1S/C14H8O5/c15-9-5-8-10(14(19)13(9)18)12(17)7-4-2-1-3-6(7)11(8)16/h1-5,15,18-19H",AHKDJQYHVWSRLT-UHFFFAOYSA-N,?,,313.0,104521
104525,602-99-3,602-99-3,Cc1c(cc(c(O)c1[N+]([O-])=O)[N+]([O-])=O)[N+]([O-])=O,"3-METHYL-2,4,6-TRINITROPHENOL","Phenol, 3-methyl-2,4,6-trinitro-","3-methyl-2,4,6-trinitrophenol",31540,DTXSID0075285,Cc1c(cc(c(O)c1[N+]([O-])=O)[N+]([O-])=O)[N+]([O-])=O,"InChI=1S/C7H5N3O7/c1-3-4(8(12)13)2-5(9(14)15)7(11)6(3)10(16)17/h2,11H,1H3",YYGJRRYSYLLCQH-UHFFFAOYSA-N,?,,109.5,104525
104530,603-35-0,603-35-0,c1ccccc1P(c1ccccc1)c1ccccc1,TRIPHENYLPHOSPHINE,Triphenylphosphine,triphenylphosphane,31544,DTXSID5026251,c1ccccc1P(c1ccccc1)c1ccccc1,InChI=1S/C18H15P/c1-4-10-16(11-5-1)19(17-12-6-2-7-13-17)18-14-8-3-9-15-18/h1-15H,RIOQSEWOXXDEQQ-UHFFFAOYSA-N,?,,80.0,104530
104538,603-71-4,603-71-4,Cc1cc(C)c(c(C)c1)[N+]([O-])=O,"Benzene, 1,3,5-trimethyl-2-nitro-","Benzene, 1,3,5-trimethyl-2-nitro-","1,3,5-Trimethyl-2-nitrobenzene",31548,DTXSID8060533,Cc1cc(C)c(c(C)c1)[N+]([O-])=O,"InChI=1S/C9H11NO2/c1-6-4-7(2)9(10(11)12)8(3)5-6/h4-5H,1-3H3",SCEKDQTVGHRSNS-UHFFFAOYSA-N,?,,44.0,104538
104542,604-53-5,NOCAS_870671,c1cccc2c(cccc21)-c1cccc2ccccc21,"1,1'-Binaphthalene",,,31552,DTXSID70870671,c1cccc2c(cccc21)-c1cccc2ccccc21,InChI=1S/C20H14/c1-3-11-17-15(7-1)9-5-13-19(17)20-14-6-10-16-8-2-4-12-18(16)20/h1-14H,ZDZHCHYQNPQSGG-UHFFFAOYSA-N,?,,160.0,104542
104547,604-83-1,604-83-1,Cc1c2ccccc2c2ccccc2c1C,"PHENANTHRENE, 9,10-DIMETHYL-","Phenanthrene, 9,10-dimethyl-","9,10-Dimethylphenanthrene",31557,DTXSID60209158,Cc1c2ccccc2c2ccccc2c1C,"InChI=1S/C16H14/c1-11-12(2)14-8-4-6-10-16(14)15-9-5-3-7-13(11)15/h3-10H,1-2H3",JUEORGSHIXFSSI-UHFFFAOYSA-N,?,,144.0,104547
104551,605-37-8,605-37-8,OC1C(=O)c2ccccc2C(=O)C=1O,"1,4-NAPHTHALENEDIONE, 2,3-DIHYDROXY-",,,31561,DTXSID80876184,OC1C(=O)c2ccccc2C(=O)C=1O,"InChI=1S/C10H6O4/c11-7-5-3-1-2-4-6(5)8(12)10(14)9(7)13/h1-4,13-14H",BVQUETZBXIMAFZ-UHFFFAOYSA-N,?,,282.0,104551
104555,605-65-2,605-65-2,CN(C)c1cccc2c(cccc21)S(=O)(=O)Cl,"1-Naphthalenesulfonyl chloride, 5-(dimethylamino","1-Naphthalenesulfonyl chloride, 5-(dimethylamino)-",5-Dimethylaminonaphthalene-1-sulfonyl chloride,31565,DTXSID2060543,CN(C)c1cccc2c(cccc21)S(=O)(=O)Cl,"InChI=1S/C12H12ClNO2S/c1-14(2)11-7-3-6-10-9(11)5-4-8-12(10)17(13,15)16/h3-8H,1-2H3",XPDXVDYUQZHFPV-UHFFFAOYSA-N,?,,70.0,104555
104559,606-19-9,606-19-9,Oc1c(cccc1C(O)=O)C(O)=O,"1,3-Benzenedicarboxylic acid, 2-hydroxy- (9CI)","1,3-Benzenedicarboxylic acid, 2-hydroxy- (9CI)","2-hydroxybenzene-1,3-dicarboxylic acid",31569,DTXSID10209401,Oc1c(cccc1C(O)=O)C(O)=O,"InChI=1S/C8H6O5/c9-6-4(7(10)11)2-1-3-5(6)8(12)13/h1-3,9H,(H,10,11)(H,12,13)",WVDGHGISNBRCAO-UHFFFAOYSA-N,?,,244.5,104559
104563,606-26-8,606-26-8,NNC(=O)c1ccccc1[N+]([O-])=O,"BENZOYLHYDRAZINE, O-NITRO",o-Nitrobenzohydrazide,2-nitrobenzohydrazide,31573,DTXSID30209403,NNC(=O)c1ccccc1[N+]([O-])=O,"InChI=1S/C7H7N3O3/c8-9-7(11)5-3-1-2-4-6(5)10(12)13/h1-4H,8H2,(H,9,11)",LYGGDXLOJMNFBV-UHFFFAOYSA-N,?,,124.0,104563
104567,606-37-1,606-37-1,[O-][N+](=O)c1cc2ccccc2c(c1)[N+]([O-])=O,"NAPHTHALENE, 1,3-DINITRO-","1,3-Dinitronaphthalene","1,3-dinitronaphthalene",31577,DTXSID9025164,[O-][N+](=O)c1cc2ccccc2c(c1)[N+]([O-])=O,InChI=1S/C10H6N2O4/c13-11(14)8-5-7-3-1-2-4-9(7)10(6-8)12(15)16/h1-6H,ULALSFRIGPMWRS-UHFFFAOYSA-N,?,,148.0,104567
104572,606-86-0,606-86-0,O=C(CC(c1ccccc1)c1ccccc1)c1ccccc1,"Propiophenone, 3,3-diphenyl-","Propiophenone, 3,3-diphenyl-","1,3,3-tri(phenyl)propan-1-one",31581,DTXSID60209411,O=C(CC(c1ccccc1)c1ccccc1)c1ccccc1,"InChI=1S/C21H18O/c22-21(19-14-8-3-9-15-19)16-20(17-10-4-1-5-11-17)18-12-6-2-7-13-18/h1-15,20H,16H2",WYRBITQXPQGTBL-UHFFFAOYSA-N,?,,96.0,104572
104576,607-34-1,607-34-1,[O-][N+](=O)c1cccc2[n]cccc12,5-NITROQUINOLINE,5-Nitroquinoline,5-Nitroquinoline,31585,DTXSID8075255,[O-][N+](=O)c1cccc2[n]cccc12,InChI=1S/C9H6N2O2/c12-11(13)9-5-1-4-8-7(9)3-2-6-10-8/h1-6H,NDDZXHOCOKCNBM-UHFFFAOYSA-N,?,,74.0,104576
104580,607-57-8,607-57-8,[O-][N+](=O)c1cc2Cc3ccccc3-c2cc1,2-NITROFLUORENE,2-Nitrofluorene,2-nitro-9H-fluorene,31589,DTXSID2020971,[O-][N+](=O)c1cc2Cc3ccccc3-c2cc1,"InChI=1S/C13H9NO2/c15-14(16)11-5-6-13-10(8-11)7-9-3-1-2-4-12(9)13/h1-6,8H,7H2",XFOHWECQTFIEIX-UHFFFAOYSA-N,?,,157.0,104580
104584,607-99-8,607-99-8,COc1c(Br)cc(Br)cc1Br,"2,4,6-TRIBROMOANISOLE","2,4,6-Tribromoanisole","1,3,5-tribromo-2-methoxybenzene",31593,DTXSID1060558,COc1c(Br)cc(Br)cc1Br,"InChI=1S/C7H5Br3O/c1-11-7-5(9)2-4(8)3-6(7)10/h2-3H,1H3",YXTRCOAFNXQTKL-UHFFFAOYSA-N,?,,88.0,104584
104588,608-25-3,608-25-3,Cc1c(O)cccc1O,"1,3-Benzenediol, 2-methyl-","2-Methyl-1,3-benzenediol","2-methylbenzene-1,3-diol",31597,DTXSID0025571,Cc1c(O)cccc1O,"InChI=1S/C7H8O2/c1-5-6(8)3-2-4-7(5)9/h2-4,8-9H,1H3",ZTMADXFOCUXMJE-UHFFFAOYSA-N,?,,120.0,104588
104592,608-29-7,608-29-7,Ic1c(I)cccc1I,"BENZENE, 1,2,3-TRIIODO-","Benzene, 1,2,3-triiodo-","1,2,3-TRIIODOBENZENE",31601,DTXSID50209642,Ic1c(I)cccc1I,InChI=1S/C6H3I3/c7-4-2-1-3-5(8)6(4)9/h1-3H,RIWAPWDHHMWTRA-UHFFFAOYSA-N,?,,116.0,104592
104596,608-33-3,608-33-3,Oc1c(Br)cccc1Br,"2,6-DIBROMOPHENOL","Phenol, 2,6-dibromo-","2,6-Dibromophenol",31605,DTXSID0060561,Oc1c(Br)cccc1Br,"InChI=1S/C6H4Br2O/c7-4-2-1-3-5(8)6(4)9/h1-3,9H",SSIZLKDLDKIHEV-UHFFFAOYSA-N,?,,56.5,104596
104603,608-90-2,608-90-2,Brc1c(Br)c(Br)cc(Br)c1Br,PENTABROMOBENZENE,"Benzene, pentabromo-","1,2,3,4,5-pentabromobenzene",31609,DTXSID90209646,Brc1c(Br)c(Br)cc(Br)c1Br,InChI=1S/C6HBr5/c7-2-1-3(8)5(10)6(11)4(2)9/h1H,LLVVSBBXENOOQY-UHFFFAOYSA-N,?,,160.5,104603
104607,609-11-0,NOCAS_870680,CC(Br)C(Br)C(=O)OCC,"Butanoic acid, 2,3-dibromo-, ethyl ester",,,31613,DTXSID60870680,CC(Br)C(Br)C(=O)OCC,"InChI=1S/C6H10Br2O2/c1-3-10-6(9)5(8)4(2)7/h4-5H,3H2,1-2H3",YPZLAXFGOUPECS-UHFFFAOYSA-N,?,,58.5,104607
104611,609-26-7,68333-81-3,CC(C)C(CC)CC,2-METHYL-3-ETHYLPENTANE,"Alkanes, C4-12",3-ethyl-2-methylpentane,31617,DTXSID5029429,CC(C)C(CC)CC,"InChI=1S/C8H18/c1-5-8(6-2)7(3)4/h7-8H,5-6H2,1-4H3",DUPUVYJQZSLSJB-UHFFFAOYSA-N,?,,-114.9,104611
104615,609-40-5,609-40-5,[O-][N+](=O)c1ccc[s]1,2-NITROTHIOPHENE,"Thiophene, 2-nitro-",2-Nitrothiophene,31621,DTXSID9060570,[O-][N+](=O)c1ccc[s]1,InChI=1S/C4H3NO2S/c6-5(7)4-2-1-3-8-4/h1-3H,JIZRGGUCOQKGQD-UHFFFAOYSA-N,?,,46.5,104615
104619,609-73-4,609-73-4,[O-][N+](=O)c1ccccc1I,"Benzene, 1-iodo-2-nitro-","Benzene, 1-iodo-2-nitro-",1-Iodo-2-nitrobenzene,31625,DTXSID9060574,[O-][N+](=O)c1ccccc1I,InChI=1S/C6H4INO2/c7-5-3-1-2-4-6(5)8(9)10/h1-4H,JXMZUNPWVXQADG-UHFFFAOYSA-N,?,,54.0,104619
104623,610-02-6,610-02-6,Oc1ccc(C(O)=O)c(O)c1O,"2,3,4-TRIHYDROXYBENZOIC ACID","2,3,4-Trihydroxybenzoic acid","2,3,4-Trihydroxybenzoic acid",31629,DTXSID20209851,Oc1ccc(C(O)=O)c(O)c1O,"InChI=1S/C7H6O5/c8-4-2-1-3(7(11)12)5(9)6(4)10/h1-2,8-10H,(H,11,12)",BRRSNXCXLSVPFC-UHFFFAOYSA-N,?,,221.0,104623