ChemID,source_casrn,CAS,SMILES,NAME,preferred_name,iupac,MPID,dsstox_substance_id,Canonical_QSARr,InChI_Code_QSARr,InChI Key_QSARr,Salt_Solvent,BP,ID
102708,615-89-4,NOCAS_870698,Cc1cc(C)c(O)cc1O,"4,6-DIMETHYLRESORCINOL",,,21708,DTXSID90870698,Cc1cc(C)c(O)cc1O,"InChI=1S/C8H10O2/c1-5-3-6(2)8(10)4-7(5)9/h3-4,9-10H,1-2H3",IYDQSPIOJHDHHO-UHFFFAOYSA-N,?,276.0,102708
102713,616-12-6|922-61-2|922-62-3,922-61-2,CCC(C)=CC,"trans-3-Methyl-2-pentene, 3-METHYL-2-PENTENE, 2-Pentene, 3-methyl-, (Z)-","2-Pentene, 3-methyl-",?,21712|22452|22453,DTXSID5073240,CCC(C)=CC,"InChI=1S/C6H12/c1-4-6(3)5-2/h4H,5H2,1-3H3/b6-4+",BEQGRRJLJLVQAQ-GQCTYLIASA-N,?,69.0333333333333,102713
102717,616-23-9,616-23-9,OCC(Cl)CCl,"2,3-DICHLOROPROPANOL","2,3-Dichloro-1-propanol","2,3-dichloropropan-1-ol",21716,DTXSID2024038,OCC(Cl)CCl,"InChI=1S/C3H6Cl2O/c4-1-3(5)2-6/h3,6H,1-2H2",ZXCYIJGIGSDJQQ-UHFFFAOYSA-N,?,184.0,102717
102721,616-31-9,616-31-9,CCC(S)CC,3-PENTANETHIOL,Pentane-3-thiol,Pentane-3-thiol,21720,DTXSID70210598,CCC(S)CC,"InChI=1S/C5H12S/c1-3-5(6)4-2/h5-6H,3-4H2,1-2H3",WICKAMSPKJXSGN-UHFFFAOYSA-N,?,105.0,102721
102725,616-42-2,616-42-2,COS(=O)OC,"Sulfurous acid, dimethyl ester","Sulfurous acid, dimethyl ester",Dimethyl sulfite,21724,DTXSID3060665,COS(=O)OC,InChI=1S/C2H6O3S/c1-4-6(3)5-2/h1-2H3,BDUPRNVPXOHWIL-UHFFFAOYSA-N,?,126.0,102725
102729,616-47-7,616-47-7,C[n]1c[n]cc1,"1H-IMIDAZOLE, 1-METHYL-",1-Methylimidazole,1-methyl-1H-imidazole,21728,DTXSID6052291,C[n]1c[n]cc1,"InChI=1S/C4H6N2/c1-6-3-2-5-4-6/h2-4H,1H3",MCTWTZJPVLRJOU-UHFFFAOYSA-N,?,195.5,102729
102733,617-29-8,NOCAS_862295,CC(C)C(O)CCC,2-METHYL-3-HEXANOL,,,21732,DTXSID90862295,CC(C)C(O)CCC,"InChI=1S/C7H16O/c1-4-5-7(8)6(2)3/h6-8H,4-5H2,1-3H3",RGRUUTLDBCWYBL-UHFFFAOYSA-N,?,141.0,102733
102737,617-51-6,617-51-6,CC(C)OC(=O)C(C)O,2-Hydroxy-propionic acid isopropyl ester,Isopropyl lactate,C6H12O3,21736,DTXSID70858732,CC(C)OC(=O)C(C)O,"InChI=1S/C6H12O3/c1-4(2)9-6(8)5(3)7/h4-5,7H,1-3H3",KIWATKANDHUUOB-UHFFFAOYSA-N,?,167.0,102737
102743,617-80-1,617-80-1,CCC(CC)C#N,Cyanodiethylmethane,2-Ethylbutyronitrile,2-ethylbutanenitrile,21740,DTXSID60210704,CCC(CC)C#N,"InChI=1S/C6H11N/c1-3-6(4-2)5-7/h6H,3-4H2,1-2H3",QARLTYSAFQGMMB-UHFFFAOYSA-N,?,145.5,102743
102748,617-89-0,617-89-0,NCc1ccco1,2-AMINOMETHYLFURAN,Furfurylamine,1-(2-furyl)methanamine,21744,DTXSID6052295,NCc1ccco1,"InChI=1S/C5H7NO/c6-4-5-2-1-3-7-5/h1-3H,4,6H2",DDRPCXLAQZKBJP-UHFFFAOYSA-N,?,145.5,102748
102752,618-32-6,618-32-6,O=C(Br)c1ccccc1,BENZOYL BROMIDE,Benzoyl bromide,BENZOYL BROMIDE,21748,DTXSID7060677,O=C(Br)c1ccccc1,InChI=1S/C7H5BrO/c8-7(9)6-4-2-1-3-5-6/h1-5H,AQIHMSVIAGNIDM-UHFFFAOYSA-N,?,218.5,102752
102757,618-45-1,618-45-1,CC(C)c1cccc(O)c1,M-ISOPROPYLPHENOL,3-Isopropylphenol,3-(propan-2-yl)phenol,21752,DTXSID0044571,CC(C)c1cccc(O)c1,"InChI=1S/C9H12O/c1-7(2)8-4-3-5-9(10)6-8/h3-7,10H,1-2H3",VLJSLTNSFSOYQR-UHFFFAOYSA-N,?,228.0,102757
102761,618-98-4,618-98-4,CCOC(=O)c1cc(ccc1)[N+]([O-])=O,ETHYL-M-NITROBENZOATE,"Benzoic acid, 3-nitro-, ethyl ester",Ethyl 3-nitrobenzoate,21756,DTXSID0060692,CCOC(=O)c1cc(ccc1)[N+]([O-])=O,"InChI=1S/C9H9NO4/c1-2-14-9(11)7-4-3-5-8(6-7)10(12)13/h3-6H,2H2,1H3",MKBIJCPQTPFQKQ-UHFFFAOYSA-N,?,297.0,102761
102766,619-33-0,619-33-0,CCOC(OCC)C(Cl)Cl,"1,1-DICHLORO-2,2-DIETHOXYETHANE","1,1-Dichloro-2,2-diethoxyethane","1,1-DICHLORO-2,2-DIETHOXYETHANE",21760,DTXSID7060700,CCOC(OCC)C(Cl)Cl,"InChI=1S/C6H12Cl2O2/c1-3-9-6(5(7)8)10-4-2/h5-6H,3-4H2,1-2H3",CDHLQZJRWKQATP-UHFFFAOYSA-N,?,183.5,102766
102770,620-11-1,620-11-1,CC(=O)OC(CC)CC,3-Pentyl acetate,"3-Pentanol, acetate (8CI)(9CI)",pentan-3-yl acetate,21764,DTXSID20211030,CC(=O)OC(CC)CC,"InChI=1S/C7H14O2/c1-4-7(5-2)9-6(3)8/h7H,4-5H2,1-3H3",PBKYSIMDORTIEU-UHFFFAOYSA-N,?,133.0,102770
102774,620-16-6,620-16-6,CCc1cccc(Cl)c1,"BENZENE, 1-CHLORO-3-ETHYL-","Benzene, 1-chloro-3-ethyl-",1-Chloro-3-ethylbenzene,21768,DTXSID40211032,CCc1cccc(Cl)c1,"InChI=1S/C8H9Cl/c1-2-7-4-3-5-8(9)6-7/h3-6H,2H2,1H3",LOXUEGMPESDGBQ-UHFFFAOYSA-N,?,183.8,102774
102778,620-22-4,620-22-4,Cc1cc(ccc1)C#N,"Benzonitrile, 3-methyl-",3-Methylbenzonitrile,3-methylbenzonitrile,21772,DTXSID6026167,Cc1cc(ccc1)C#N,"InChI=1S/C8H7N/c1-7-3-2-4-8(5-7)6-9/h2-5H,1H3",BOHCMQZJWOGWTA-UHFFFAOYSA-N,?,213.0,102778
102782,620-71-3,620-71-3,CCC(=O)Nc1ccccc1,PROPIONANILIDE,N-Phenylpropanamide,N-Phenylpropanamide,21776,DTXSID0060721,CCC(=O)Nc1ccccc1,"InChI=1S/C9H11NO/c1-2-9(11)10-8-6-4-3-5-7-8/h3-7H,2H2,1H3,(H,10,11)",ZTHRQJQJODGZHV-UHFFFAOYSA-N,?,222.2,102782
102788,620-88-2,620-88-2,[O-][N+](=O)c1ccc(cc1)Oc1ccccc1,4-NITRO DIPHENYL ETHER,4-Nitrophenyl phenyl ether,1-nitro-4-phenoxybenzene,21780,DTXSID3022087,[O-][N+](=O)c1ccc(cc1)Oc1ccccc1,InChI=1S/C12H9NO3/c14-13(15)10-6-8-12(9-7-10)16-11-4-2-1-3-5-11/h1-9H,JDTMUJBWSGNMGR-UHFFFAOYSA-N,?,320.0,102788
102792,621-23-8,621-23-8,COc1cc(cc(c1)OC)OC,"Benzene, 1,3,5-trimethoxy-","1,3,5-Trimethoxybenzene","1,3,5-trimethoxybenzene",21784,DTXSID0045963,COc1cc(cc(c1)OC)OC,"InChI=1S/C9H12O3/c1-10-7-4-8(11-2)6-9(5-7)12-3/h4-6H,1-3H3",LKUDPHPHKOZXCD-UHFFFAOYSA-N,?,255.5,102792
102796,621-62-5,621-62-5,CCOC(CCl)OCC,"Ethane, 2-chloro-1,1-diethoxy-","Ethane, 2-chloro-1,1-diethoxy-","2-Chloro-1,1-diethoxyethane",21788,DTXSID4060735,CCOC(CCl)OCC,"InChI=1S/C6H13ClO2/c1-3-8-6(5-7)9-4-2/h6H,3-5H2,1-2H3",OVXJWSYBABKZMD-UHFFFAOYSA-N,?,157.4,102796
102800,621-77-2,621-77-2,CCCCCN(CCCCC)CCCCC,"1-Pentanamine, N,N-dipentyl-",Tripentylamine,C15H33N,21792,DTXSID0026177,CCCCCN(CCCCC)CCCCC,"InChI=1S/C15H33N/c1-4-7-10-13-16(14-11-8-5-2)15-12-9-6-3/h4-15H2,1-3H3",OOHAUGDGCWURIT-UHFFFAOYSA-N,?,242.5,102800
102807,622-29-7,622-29-7,CN=Cc1ccccc1,"METHANAMINE, N-(PHENYLMETHYLENE)-","Methanamine, N-(phenylmethylene)-",N-methyl-1-phenylmethanimine,21797,DTXSID7060750,CN=Cc1ccccc1,"InChI=1S/C8H9N/c1-9-7-8-5-3-2-4-6-8/h2-7H,1H3/b9-7+",HXTGGPKOEKKUQO-VQHVLOKHSA-N,?,185.0,102807
102811,622-40-2,622-40-2,OCCN1CCOCC1,4-Morpholineethanol,4-(2-Hydroxyethyl)morpholine,2-(morpholin-4-yl)ethanol,21801,DTXSID2022090,OCCN1CCOCC1,"InChI=1S/C6H13NO2/c8-4-1-7-2-5-9-6-3-7/h8H,1-6H2",KKFDCBRMNNSAAW-UHFFFAOYSA-N,?,227.0,102811
102815,622-57-1,622-57-1,Cc1ccc(cc1)NCC,"Benzenamine, N-ethyl-4-methyl-","Benzenamine, N-ethyl-4-methyl-",N-Ethyl-4-methylaniline,21805,DTXSID7060754,Cc1ccc(cc1)NCC,"InChI=1S/C9H13N/c1-3-10-9-6-4-8(2)5-7-9/h4-7,10H,3H2,1-2H3",AASABFUMCBTXRL-UHFFFAOYSA-N,?,217.0,102815
102819,622-62-8,622-62-8,CCOc1ccc(O)cc1,P-ETHOXYPHENOL,4-Ethoxyphenol,4-ethoxyphenol,21809,DTXSID3044251,CCOc1ccc(O)cc1,"InChI=1S/C8H10O2/c1-2-10-8-5-3-7(9)4-6-8/h3-6,9H,2H2,1H3",LKVFCSWBKOVHAH-UHFFFAOYSA-N,?,246.5,102819
102823,622-85-5,622-85-5,CCCOc1ccccc1,PHENYLPROPYL ETHER,"Benzene, propoxy-",propoxybenzene,21813,DTXSID1060760,CCCOc1ccccc1,"InChI=1S/C9H12O/c1-2-8-10-9-6-4-3-5-7-9/h3-7H,2,8H2,1H3",DSNYFFJTZPIKFZ-UHFFFAOYSA-N,?,189.9,102823
102827,622-97-9,622-97-9,Cc1ccc(C=C)cc1,P-METHYLSTYRENE,4-Methylstyrene,1-ethenyl-4-methylbenzene,21817,DTXSID3020889,Cc1ccc(C=C)cc1,"InChI=1S/C9H10/c1-3-9-6-4-8(2)5-7-9/h3-7H,1H2,2H3",JLBJTVDPSNHSKJ-UHFFFAOYSA-N,?,172.8,102827
102831,623-05-2,623-05-2,Oc1ccc(CO)cc1,P-HYDROXYBENZYL ALCOHOL,4-Hydroxybenzenemethanol,4-(Hydroxymethyl)phenol,21821,DTXSID8073920,Oc1ccc(CO)cc1,"InChI=1S/C7H8O2/c8-5-6-1-3-7(9)4-2-6/h1-4,8-9H,5H2",BVJSUAQZOZWCKN-UHFFFAOYSA-N,?,252.0,102831
102835,623-17-6,623-17-6,CC(=O)OCc1ccco1,"2-Furanmethanol, acetate",Furfuryl acetate,furan-2-ylmethyl acetate,21825,DTXSID7025346,CC(=O)OCc1ccco1,"InChI=1S/C7H8O3/c1-6(8)10-5-7-3-2-4-9-7/h2-4H,5H2,1H3",CKOYRRWBOKMNRG-UHFFFAOYSA-N,?,179.0,102835
102839,623-27-8,623-27-8,O=Cc1ccc(cc1)C=O,"1,4-Benzenedicarboxaldehyde","1,4-Benzenedicarboxaldehyde",Terephthalaldehyde,21829,DTXSID6060769,O=Cc1ccc(cc1)C=O,InChI=1S/C8H6O2/c9-5-7-1-2-8(6-10)4-3-7/h1-6H,KUCOHFSKRZZVRO-UHFFFAOYSA-N,?,246.0,102839
102843,623-39-2,623-39-2,COCC(O)CO,"1,2-Propanediol, 3-methoxy-",1-O-Methylglycerol,"3-methoxypropane-1,2-diol",21833,DTXSID3049336,COCC(O)CO,"InChI=1S/C4H10O3/c1-7-3-4(6)2-5/h4-6H,2-3H2,1H3",PSJBSUHYCGQTHZ-UHFFFAOYSA-N,?,220.0,102843
102847,623-46-1,NOCAS_870709,CCOC(Cl)CCl,"Ethane, 1,2-dichloro-1-ethoxy-",,,21837,DTXSID40870709,CCOC(Cl)CCl,"InChI=1S/C4H8Cl2O/c1-2-7-4(6)3-5/h4H,2-3H2,1H3",NNBUKAPOVBEMNI-UHFFFAOYSA-N,?,145.0,102847
102851,623-50-7,623-50-7,CCOC(=O)CO,"Acetic acid, hydroxy-, ethyl ester","Acetic acid, hydroxy-, ethyl ester",ethyl 2-hydroxyacetate,21841,DTXSID5060772,CCOC(=O)CO,"InChI=1S/C4H8O3/c1-2-7-4(6)3-5/h5H,2-3H2,1H3",ZANNOFHADGWOLI-UHFFFAOYSA-N,?,160.0,102851
102855,623-68-7,NOCAS_870711,CC=CC(=O)OC(=O)C=CC,"2-Butenoic acid, anhydride",,,21845,DTXSID10870711,CC=CC(=O)OC(=O)C=CC,"InChI=1S/C8H10O3/c1-3-5-7(9)11-8(10)6-4-2/h3-6H,1-2H3/b5-3+,6-4+",VJDDQSBNUHLBTD-GGWOSOGESA-N,?,247.0,102855
102859,623-76-7,623-76-7,CCNC(=O)NCC,"UREA, N,N'-DIETHYL-","Urea, N,N'-diethyl (9CI)","1,3-Diethylurea",21849,DTXSID90211365,CCNC(=O)NCC,"InChI=1S/C5H12N2O/c1-3-6-5(8)7-4-2/h3-4H2,1-2H3,(H2,6,7,8)",ZWAVGZYKJNOTPX-UHFFFAOYSA-N,?,263.0,102859
102863,623-84-7,623-84-7,CC(=O)OCC(C)OC(C)=O,"1,2-PROPYLENE GLYCOL DIACETATE","Propane-1,2-diyl diacetate","propane-1,2-diyl diacetate",21853,DTXSID9044827,CC(=O)OCC(C)OC(C)=O,"InChI=1S/C7H12O4/c1-5(11-7(3)9)4-10-6(2)8/h5H,4H2,1-3H3",MLHOXUWWKVQEJB-UHFFFAOYSA-N,?,190.5,102863
102868,623-96-1,623-96-1,CCCOC(=O)OCCC,"Carbonic acid, dipropyl ester","Carbonic acid, dipropyl ester",Dipropyl carbonate,21858,DTXSID5060778,CCCOC(=O)OCCC,"InChI=1S/C7H14O3/c1-3-5-9-7(8)10-6-4-2/h3-6H2,1-2H3",VUPKGFBOKBGHFZ-UHFFFAOYSA-N,?,168.0,102868
102873,624-17-9,624-17-9,CCOC(=O)CCCCCCCC(=O)OCC,DIETHYL AZELATE,"Nonanedioic acid, diethyl ester",Diethyl nonanedioate,21862,DTXSID4060783,CCOC(=O)CCCCCCCC(=O)OCC,"InChI=1S/C13H24O4/c1-3-16-12(14)10-8-6-5-7-9-11-13(15)17-4-2/h3-11H2,1-2H3",CQMYCPZZIPXILQ-UHFFFAOYSA-N,?,291.5,102873
102878,624-41-9,624-41-9,CCC(C)COC(C)=O,"1-Butanol, 2-methyl-, acetate",2-Methylbutyl acetate,2-methylbutyl acetate,21866,DTXSID2027254,CCC(C)COC(C)=O,"InChI=1S/C7H14O2/c1-4-6(2)5-9-7(3)8/h6H,4-5H2,1-3H3",XHIUFYZDQBSEMF-UHFFFAOYSA-N,?,140.0,102878
102883,624-48-6|624-49-7,624-48-6|624-49-7,COC(=O)/C=C\C(=O)OC,"METHYL MALEATE, 2-BUTENEDIOIC ACID (E)-, DIMETHYL ESTER",Dimethyl maleate,dimethyl (2Z)-but-2-enedioate,21870|21871,DTXSID4040765|DTXSID4060787,COC(=O)C=CC(=O)OC,"InChI=1S/C6H8O4/c1-9-5(7)3-4-6(8)10-2/h3-4H,1-2H3/b4-3+",LDCRTTXIJACKKU-ONEGZZNKSA-N,?,197.5,102883
102889,624-70-4,624-70-4,ClCCI,1-chloro-2-iodoethane,"1,2-Chloroiodoethane",1-Chloro-2-iodoethane,21876,DTXSID60211458,ClCCI,InChI=1S/C2H4ClI/c3-1-2-4/h1-2H2,JTWWWQGSFTWWDL-UHFFFAOYSA-N,?,140.0,102889
102893,624-78-2,624-78-2,CCNC,METHYLETHYLAMINE,"Ethanamine, N-methyl-",N-METHYLETHANAMINE,21880,DTXSID8060793,CCNC,"InChI=1S/C3H9N/c1-3-4-2/h4H,3H2,1-2H3",LIWAQLJGPBVORC-UHFFFAOYSA-N,?,36.5,102893
102897,624-92-0,624-92-0,CSSC,DIMETHYLDISULFIDE,Methyl disulfide,dimethyl disulfide,21884,DTXSID4025117,CSSC,InChI=1S/C2H6S2/c1-3-4-2/h1-2H3,WQOXQRCZOLPYPM-UHFFFAOYSA-N,?,109.8,102897
102901,625-04-7,625-04-7,CC(=O)CC(C)(C)N,Diacetonamine,"2-Pentanone, 4-amino-4-methyl-",4-Amino-4-methylpentan-2-one,21888,DTXSID3060798,CC(=O)CC(C)(C)N,"InChI=1S/C6H13NO/c1-5(8)4-6(2,3)7/h4,7H2,1-3H3",CQTRUFMMCCOKTA-UHFFFAOYSA-N,?,180.0,102901
102905,625-27-4,625-27-4,CCC=C(C)C,2-METHYL-2-PENTENE,2-Methyl-2-pentene,2-Methylpent-2-ene,21892,DTXSID8073217,CCC=C(C)C,"InChI=1S/C6H12/c1-4-5-6(2)3/h5H,4H2,1-3H3",JMMZCWZIJXAGKW-UHFFFAOYSA-N,?,67.3,102905
102909,625-31-0,55563-79-6,C[C@H](O)CC=C,4-Penten-2-ol,(S)-(+)-4-Penten-2-ol,C5H10O,21896,DTXSID40426381,CC(O)CC=C,"InChI=1S/C5H10O/c1-3-4-5(2)6/h3,5-6H,1,4H2,2H3",ZHZCYWWNFQUZOR-UHFFFAOYSA-N,?,116.0,102909
102913,625-44-5,625-44-5,COCC(C)C,METHYL ISOBUTYL ETHER,"Ether, isobutyl methyl",1-Methoxy-2-methylpropane,21900,DTXSID70211540,COCC(C)C,"InChI=1S/C5H12O/c1-5(2)4-6-3/h5H,4H2,1-3H3",ZYVYEJXMYBUCMN-UHFFFAOYSA-N,?,58.6,102913
102917,625-48-9,625-48-9,[O-][N+](=O)CCO,2-NITROETHANOL,2-Nitroethanol,2-nitroethanol,21904,DTXSID8025751,[O-][N+](=O)CCO,"InChI=1S/C2H5NO3/c4-2-1-3(5)6/h4H,1-2H2",KIPMDPDAFINLIV-UHFFFAOYSA-N,?,194.0,102917
102921,625-56-9,625-56-9,CC(=O)OCCl,Chlorometh acetate,Chloromethyl acetate,Chloromethyl acetate,21908,DTXSID10211544,CC(=O)OCCl,"InChI=1S/C3H5ClO2/c1-3(5)6-2-4/h2H2,1H3",SMJYMSAPPGLBAR-UHFFFAOYSA-N,?,116.0,102921
102925,625-66-1,625-66-1,CC(C)CC(Cl)Cl,"BUTANE, 1,1-DICHLORO-3-METHYL-","Butane, 1,1-dichloro-3-methyl-","1,1-Dichloro-3-methylbutane",21912,DTXSID30211546,CC(C)CC(Cl)Cl,"InChI=1S/C5H10Cl2/c1-4(2)3-5(6)7/h4-5H,3H2,1-2H3",VXEMJASOVHTHLL-UHFFFAOYSA-N,?,130.0,102925
102929,625-77-4,625-77-4,CC(=O)NC(C)=O,DIACETAMIDE,Diacetamide,N-Acetylacetamide,21916,DTXSID10211549,CC(=O)NC(C)=O,"InChI=1S/C4H7NO2/c1-3(6)5-4(2)7/h1-2H3,(H,5,6,7)",ZSBDPRIWBYHIAF-UHFFFAOYSA-N,?,223.5,102929
102933,625-86-5,625-86-5,Cc1ccc(C)o1,"FURAN, 2,5-DIMETHYL-","2,5-Dimethylfuran","2,5-dimethylfuran",21920,DTXSID7022093,Cc1ccc(C)o1,"InChI=1S/C6H8O/c1-5-3-4-6(2)7-5/h3-4H,1-2H3",GSNUFIFRDBKVIE-UHFFFAOYSA-N,?,93.5,102933
102939,626-16-4,626-16-4,ClCc1cc(CCl)ccc1,"1,3-(BIS-CHLOROMETHYL)BENZENE","Benzene, 1,3-bis(chloromethyl)-","1,3-Bis(chloromethyl)benzene",21924,DTXSID4060814,ClCc1cc(CCl)ccc1,"InChI=1S/C8H8Cl2/c9-5-7-2-1-3-8(4-7)6-10/h1-4H,5-6H2",GRJWOKACBGZOKT-UHFFFAOYSA-N,?,251.5,102939
102943,626-27-7,NOCAS_870721,CCCCCCC(=O)OC(=O)CCCCCC,"Heptanoic acid, anhydride",,,21928,DTXSID60870721,CCCCCCC(=O)OC(=O)CCCCCC,"InChI=1S/C14H26O3/c1-3-5-7-9-11-13(15)17-14(16)12-10-8-6-4-2/h3-12H2,1-2H3",DAPZDAPTZFJZTO-UHFFFAOYSA-N,?,269.5,102943
102947,626-39-1,626-39-1,Brc1cc(Br)cc(Br)c1,"1,3,5-TRIBROMOBENZENE","1,3,5-Tribromobenzene","1,3,5-tribromobenzene",21932,DTXSID3052307,Brc1cc(Br)cc(Br)c1,InChI=1S/C6H3Br3/c7-4-1-5(8)3-6(9)2-4/h1-3H,YWDUZLFWHVQCHY-UHFFFAOYSA-N,?,271.0,102947
102951,626-58-4,626-58-4,CC1CCNCC1,"Piperidine, 4-methyl-","Piperidine, 4-methyl-",4-Methylpiperidine,21936,DTXSID8060820,CC1CCNCC1,"InChI=1S/C6H13N/c1-6-2-4-7-5-3-6/h6-7H,2-5H2,1H3",UZOFELREXGAFOI-UHFFFAOYSA-N,?,130.0,102951
102955,626-77-7,626-77-7,CCCOC(=O)CCCCC,PROPYL HEXANOATE,Propyl hexanoate,Propyl hexanoate,21940,DTXSID3060823,CCCOC(=O)CCCCC,"InChI=1S/C9H18O2/c1-3-5-6-7-9(10)11-8-4-2/h3-8H2,1-2H3",HTUIWRWYYVBCFT-UHFFFAOYSA-N,?,187.0,102955
102959,626-88-0,626-88-0,CC(C)CCCBr,"Pentane, 1-bromo-4-methyl-","Pentane, 1-bromo-4-methyl-",1-Bromo-4-methylpentane,21944,DTXSID8060826,CC(C)CCCBr,"InChI=1S/C6H13Br/c1-6(2)4-3-5-7/h6H,3-5H2,1-2H3",XZKFBZOAIGFZSU-UHFFFAOYSA-N,?,145.0,102959
102963,626-92-6,NOCAS_870725,CC(Cl)CCCCl,"PENTANE, 1,4-DICHLORO-","1,4-Dichloropentane",C5H10Cl2,21948,DTXSID00870725,CC(Cl)CCCCl,"InChI=1S/C5H10Cl2/c1-5(7)3-2-4-6/h5H,2-4H2,1H3",IJZUPZAYWWVHIO-UHFFFAOYSA-N,?,162.0,102963
102967,626-97-1,626-97-1,CCCCC(N)=O,Pentanamide,Pentanamide,Pentanamide,21952,DTXSID3060827,CCCCC(N)=O,"InChI=1S/C5H11NO/c1-2-3-4-5(6)7/h2-4H2,1H3,(H2,6,7)",IPWFJLQDVFKJDU-UHFFFAOYSA-N,?,225.0,102967
102971,627-08-7,627-08-7,CCCOC(C)C,PROPYL ISOPROPYL ETHER,"Propane, 1-(1-methylethoxy)-",2-propoxypropane,21956,DTXSID7060831,CCCOC(C)C,"InChI=1S/C6H14O/c1-4-5-7-6(2)3/h6H,4-5H2,1-3H3",JIEJJGMNDWIGBJ-UHFFFAOYSA-N,?,83.0,102971
102975,627-19-0,627-19-0,CCCC#C,1-PENTYNE,1-Pentyne,pent-1-yne,21960,DTXSID7060835,CCCC#C,"InChI=1S/C5H8/c1-3-5-4-2/h1H,4-5H2,2H3",IBXNCJKFFQIKKY-UHFFFAOYSA-N,?,40.1,102975
102981,627-30-5,627-30-5,OCCCCl,3-CHLORO-1-PROPANOL,3-Chloro-1-propanol,3-chloropropan-1-ol,21965,DTXSID9024809,OCCCCl,"InChI=1S/C3H7ClO/c4-2-1-3-5/h5H,1-3H2",LAMUXTNQCICZQX-UHFFFAOYSA-N,?,165.0,102981
102985,627-40-7,627-40-7,COCC=C,"1-Propene, 3-methoxy-","1-Propene, 3-methoxy-",3-methoxyprop-1-ene,21969,DTXSID7060839,COCC=C,"InChI=1S/C4H8O/c1-3-4-5-2/h3H,1,4H2,2H3",FASUFOTUSHAIHG-UHFFFAOYSA-N,?,44.0,102985
102990,627-51-0,627-51-0,C=CSC=C,"1,1'-THIOBISETHENE",Divinyl sulfide,ethenylsulfanylethene,21973,DTXSID10211766,C=CSC=C,"InChI=1S/C4H6S/c1-3-5-4-2/h3-4H,1-2H2",UIYCHXAGWOYNNA-UHFFFAOYSA-N,?,84.0,102990
102995,627-67-8,627-67-8,CC(C)CC[N+]([O-])=O,2-Methyl-4-nitrobutane,3-Methyl-1-nitrobutane,3-Methyl-1-nitrobutane,21977,DTXSID90211769,CC(C)CC[N+]([O-])=O,"InChI=1S/C5H11NO2/c1-5(2)3-4-6(7)8/h5H,3-4H2,1-2H3",FEJLPMVSVDSKHJ-UHFFFAOYSA-N,?,163.5,102995
102999,627-98-5,51774-11-9,CC(C)CCCCO,"1-HEXANOL, 5-METHYL-",Isoheptanol,5-Methylhexan-1-ol,21981,DTXSID4075326,CC(C)CCCCO,"InChI=1S/C7H16O/c1-7(2)5-3-4-6-8/h7-8H,3-6H2,1-2H3",ZVHAANQOQZVVFD-UHFFFAOYSA-N,?,170.0,102999
103004,628-16-0,628-16-0,C#CCCC#C,"1,5-Hexadiyne","1,5-Hexadiyne","hexa-1,5-diyne",21985,DTXSID6060848,C#CCCC#C,"InChI=1S/C6H6/c1-3-5-6-4-2/h1-2H,5-6H2",YFIBSNDOVCWPBL-UHFFFAOYSA-N,?,86.0,103004
103008,628-29-5,628-29-5,CCCCSC,2-THIAHEXANE,"Butane, 1-(methylthio)-",1-methylsulfanylbutane,21989,DTXSID0060852,CCCCSC,"InChI=1S/C5H12S/c1-3-4-5-6-2/h3-5H2,1-2H3",WCXXISMIJBRDQK-UHFFFAOYSA-N,?,123.5,103008
103012,628-37-5,628-37-5,CCOOCC,"PEROXIDE, DIETHYL","Peroxide, diethyl",ethylperoxyethane,21993,DTXSID8073922,CCOOCC,"InChI=1S/C4H10O2/c1-3-5-6-4-2/h3-4H2,1-2H3",RHMZKSWPMYAOAZ-UHFFFAOYSA-N,?,65.0,103012
103016,628-55-7,628-55-7,CC(C)COCC(C)C,DI-ISOBUTYL ETHER,"Propane, 1,1'-oxybis[2-methyl-",2-methyl-1-(2-methylpropoxy)propane,21997,DTXSID0060856,CC(C)COCC(C)C,"InChI=1S/C8H18O/c1-7(2)5-9-6-8(3)4/h7-8H,5-6H2,1-4H3",SZNYYWIUQFZLLT-UHFFFAOYSA-N,?,123.0,103016
103020,628-67-1,628-67-1,CC(=O)OCCCCOC(C)=O,"1,4-Butanediol, diacetate",,,22001,DTXSID70879240,CC(=O)OCCCCOC(C)=O,"InChI=1S/C8H14O4/c1-7(9)11-5-3-4-6-12-8(2)10/h3-6H2,1-2H3",XUKSWKGOQKREON-UHFFFAOYSA-N,?,229.0,103020
103024,628-76-2,628-76-2,ClCCCCCCl,"1,5-DICHLOROPENTANE","1,5-Dichloropentane","1,5-dichloropentane",22005,DTXSID2022094,ClCCCCCCl,InChI=1S/C5H10Cl2/c6-4-2-1-3-5-7/h1-5H2,LBKDGROORAKTLC-UHFFFAOYSA-N,?,179.0,103024
103029,628-92-2,628-92-2,C1CCCCC=C1,CYCLOHEPTENE,Cycloheptene,Cycloheptene,22009,DTXSID4074560,C1CCCCC=C1,"InChI=1S/C7H12/c1-2-4-6-7-5-3-1/h1-2H,3-7H2",ZXIJMRYMVAMXQP-UHFFFAOYSA-N,?,115.0,103029
103033,629-03-8,629-03-8,BrCCCCCCBr,"Hexane, 1,6-dibromo-","1,6-Dibromohexane","1,6-dibromohexane",22013,DTXSID4044452,BrCCCCCCBr,InChI=1S/C6H12Br2/c7-5-3-1-2-4-6-8/h1-6H2,SGRHVVLXEBNBDV-UHFFFAOYSA-N,?,245.5,103033
103037,629-08-3,629-08-3,CCCCCCC#N,HEPTANENITRILE,Heptanenitrile,heptanenitrile,22017,DTXSID0021599,CCCCCCC#N,"InChI=1S/C7H13N/c1-2-3-4-5-6-7-8/h2-6H2,1H3",SDAXRHHPNYTELL-UHFFFAOYSA-N,?,183.0,103037
103041,629-19-6,629-19-6,CCCSSCCC,"4,5-DITHIAOCTANE",Dipropyl disulfide,dipropyl disulfide,22021,DTXSID2022096,CCCSSCCC,"InChI=1S/C6H14S2/c1-3-5-7-8-6-4-2/h3-6H2,1-2H3",ALVPFGSHPUPROW-UHFFFAOYSA-N,?,193.5,103041
103045,629-31-2,629-31-2,CCCCCCC=NO,"Heptanal, oxime","Heptanal, oxime",,22025,DTXSID9060869,CCCCCCCN=O,"InChI=1S/C7H15NO/c1-2-3-4-5-6-7-8-9/h2-7H2,1H3",DMJBDVZMPKTLON-UHFFFAOYSA-N,?,195.0,103045
103049,629-50-5,629-50-5,CCCCCCCCCCCCC,N-TRIDECANE,Tridecane,tridecane,22029,DTXSID6027266,CCCCCCCCCCCCC,"InChI=1S/C13H28/c1-3-5-7-9-11-13-12-10-8-6-4-2/h3-13H2,1-2H3",IIYFAKIEWZDVMP-UHFFFAOYSA-N,?,235.4,103049
103053,629-64-1,629-64-1,CCCCCCCOCCCCCCC,"Heptane, 1,1'-oxybis-","Heptane, 1,1'-oxybis-",1-heptoxyheptane,22033,DTXSID8060878,CCCCCCCOCCCCCCC,"InChI=1S/C14H30O/c1-3-5-7-9-11-13-15-14-12-10-8-6-4-2/h3-14H2,1-2H3",UJEGHEMJVNQWOJ-UHFFFAOYSA-N,?,258.5,103053
103057,629-74-3,629-74-3,CCCCCCCCCCCCCCC#C,1-Hexadecyne,1-Hexadecyne,hexadec-1-yne,22037,DTXSID2060880,CCCCCCCCCCCCCCC#C,"InChI=1S/C16H30/c1-3-5-7-9-11-13-15-16-14-12-10-8-6-4-2/h1H,4-16H2,2H3",UCIDYSLOTJMRAM-UHFFFAOYSA-N,?,284.0,103057
103061,629-89-0,629-89-0,CCCCCCCCCCCCCCCCC#C,Octadec-1-yne,Octadecyne,octadec-1-yne,22041,DTXSID90212079,CCCCCCCCCCCCCCCCC#C,"InChI=1S/C18H34/c1-3-5-7-9-11-13-15-17-18-16-14-12-10-8-6-4-2/h1H,4-18H2,2H3",IYDNQWWOZQLMRH-UHFFFAOYSA-N,?,313.0,103061
103065,629-96-9,629-96-9,CCCCCCCCCCCCCCCCCCCCO,1-EICOSANOL,1-Eicosanol,icosan-1-ol,22045,DTXSID0027272,CCCCCCCCCCCCCCCCCCCCO,"InChI=1S/C20H42O/c1-2-3-4-5-6-7-8-9-10-11-12-13-14-15-16-17-18-19-20-21/h21H,2-20H2,1H3",BTFJIXJJCSYFAL-UHFFFAOYSA-N,?,372.0,103065