ChemID,source_casrn,CAS,SMILES,NAME,preferred_name,iupac,MPID,dsstox_substance_id,Canonical_QSARr,InChI_Code_QSARr,InChI Key_QSARr,Salt_Solvent,BP,ID
102693,615-41-8,615-41-8,Clc1ccccc1I,2-CHLOROIODOBENZENE,"Benzene, 1-chloro-2-iodo-",1-Chloro-2-iodobenzene,21694,DTXSID5060647,Clc1ccccc1I,InChI=1S/C6H4ClI/c7-5-3-1-2-4-6(5)8/h1-4H,MPEOPBCQHNWNFB-UHFFFAOYSA-N,?,234.5,102693
102695,615-54-3,615-54-3,Brc1cc(Br)c(Br)cc1,"1,2,4-TRIBROMOBENZENE","1,2,4-Tribromobenzene","1,2,4-tribromobenzene",21696,DTXSID5024346,Brc1cc(Br)c(Br)cc1,InChI=1S/C6H3Br3/c7-4-1-2-5(8)6(9)3-4/h1-3H,FWAJPSIPOULHHH-UHFFFAOYSA-N,?,275.0,102695
102696,615-58-7,615-58-7,Oc1ccc(Br)cc1Br,"2,4-DIBROMOPHENOL","2,4-Dibromophenol","2,4-dibromophenol",21697,DTXSID1052290,Oc1ccc(Br)cc1Br,"InChI=1S/C6H4Br2O/c7-4-1-2-6(9)5(8)3-4/h1-3,9H",FAXWFCTVSHEODL-UHFFFAOYSA-N,?,238.5,102696
102697,615-59-8,615-59-8,Cc1cc(Br)ccc1Br,"Benzene, 1,4-dibromo-2-methyl-","2,5-Dibromotoluene","1,4-dibromo-2-methylbenzene",21698,DTXSID1050389,Cc1cc(Br)ccc1Br,"InChI=1S/C7H6Br2/c1-5-4-6(8)2-3-7(5)9/h2-4H,1H3",QKEZTJYRBHOKHH-UHFFFAOYSA-N,?,236.0,102697
102699,615-62-3,615-62-3,Cc1ccc(O)cc1Cl,"Phenol, 3-chloro-4-methyl-","Phenol, 3-chloro-4-methyl-",3-Chloro-4-methylphenol,21700,DTXSID9060655,Cc1ccc(O)cc1Cl,"InChI=1S/C7H7ClO/c1-5-2-3-6(9)4-7(5)8/h2-4,9H,1H3",VQZRLBWPEHFGCD-UHFFFAOYSA-N,?,228.0,102699
102700,615-65-6,615-65-6,Cc1cc(Cl)c(N)cc1,"Benzenamine, 2-chloro-4-methyl-",2-Chloro-4-methylaniline,2-chloro-4-methylaniline,21701,DTXSID3022083,Cc1cc(Cl)c(N)cc1,"InChI=1S/C7H8ClN/c1-5-2-3-7(9)6(8)4-5/h2-4H,9H2,1H3",XGYLSRFSXKAYCR-UHFFFAOYSA-N,?,220.0,102700
102701,615-67-8,615-67-8,Oc1cc(Cl)c(O)cc1,CHLOROHYDROQUINONE,Chlorohydroquinone,"2-chlorobenzene-1,4-diol",21702,DTXSID4060656,Oc1cc(Cl)c(O)cc1,"InChI=1S/C6H5ClO2/c7-5-3-4(8)1-2-6(5)9/h1-3,8-9H",AJPXTSMULZANCB-UHFFFAOYSA-N,?,263.0,102701
102704,615-79-2,615-79-2,CC(=O)CC(=O)C(=O)OCC,"2,4-Dioxo-pentanoic acid ethyl ester","Ethyl 2,4-dioxovalerate","ethyl 2,4-dioxopentanoate",21705,DTXSID10210476,CC(=O)CC(=O)C(=O)OCC,"InChI=1S/C7H10O4/c1-3-11-7(10)6(9)4-5(2)8/h3-4H2,1-2H3",OYQVQWIASIXXRT-UHFFFAOYSA-N,?,214.0,102704
102705,615-81-6,615-81-6,CC(C)OC(=O)C(=O)OC(C)C,Oxalic acid diisopropyl ester,Diisopropyl oxalate,dipropan-2-yl oxalate,21706,DTXSID70210477,CC(C)OC(=O)C(=O)OC(C)C,"InChI=1S/C8H14O4/c1-5(2)11-7(9)8(10)12-6(3)4/h5-6H,1-4H3",ITHNIFCFNUZYLQ-UHFFFAOYSA-N,?,191.0,102705
102706,615-83-8,NOCAS_862292,CCOC(=O)C(Br)CCC,2-Bromo-pentanoic acid ethyl ester,Ethyl 2-bromovalerate,C7H13BrO2,21707,DTXSID10862292,CCOC(=O)C(Br)CCC,"InChI=1S/C7H13BrO2/c1-3-5-6(8)7(9)10-4-2/h6H,3-5H2,1-2H3",ORSIRXYHFPHWTN-UHFFFAOYSA-N,?,191.0,102706
102709,615-98-5,615-98-5,CCCOC(=O)C(=O)OCCC,Oxalic acid dipropyl ester,Dipropyl oxalate,Dipropyl oxalate,21709,DTXSID00210480,CCCOC(=O)C(=O)OCCC,"InChI=1S/C8H14O4/c1-3-5-11-7(9)8(10)12-6-4-2/h3-6H2,1-2H3",HZHMMLIMOUNKCK-UHFFFAOYSA-N,?,211.0,102709
102710,615-99-6,615-99-6,C=CCOC(=O)C(=O)OCC=C,"Ethanedioic acid, di-2-propenyl ester","Ethanedioic acid, di-2-propenyl ester",diprop-2-enyl oxalate,21710,DTXSID9060659,C=CCOC(=O)C(=O)OCC=C,"InChI=1S/C8H10O4/c1-3-5-11-7(9)8(10)12-6-4-2/h3-4H,1-2,5-6H2",BKXRKRANFLFTFU-UHFFFAOYSA-N,?,217.0,102710
102711,616-02-4,616-02-4,CC1=CC(=O)OC1=O,"2,5-Furandione, 3-methyl-","2,5-Furandione, 3-methyl-","3-methylfuran-2,5-dione",21711,DTXSID8060660,CC1=CC(=O)OC1=O,"InChI=1S/C5H4O3/c1-3-2-4(6)8-5(3)7/h2H,1H3",AYKYXWQEBUNJCN-UHFFFAOYSA-N,?,213.5,102711
102714,616-19-3,616-19-3,CC(CCl)CCl,"PROPANE, 1,3-DICHLORO-2-METHYL-","Propane, 1,3-dichloro-2-methyl-","1,3-Dichloro-2-methylpropane",21713,DTXSID50210596,CC(CCl)CCl,"InChI=1S/C4H8Cl2/c1-4(2-5)3-6/h4H,2-3H2,1H3",VENSUTAUIFXSRD-UHFFFAOYSA-N,?,136.4,102714
102715,616-20-6,616-20-6,CCC(Cl)CC,3-CHLOROPENTANE,"Pentane, 3-chloro-",3-CHLOROPENTANE,21714,DTXSID3060661,CCC(Cl)CC,"InChI=1S/C5H11Cl/c1-3-5(6)4-2/h5H,3-4H2,1-2H3",CXQSCYIVCSCSES-UHFFFAOYSA-N,?,97.5,102715
102716,616-21-7,616-21-7,CCC(Cl)CCl,"1,2-DICHLOROBUTANE","1,2-Dichlorobutane","1,2-dichlorobutane",21715,DTXSID8027244,CCC(Cl)CCl,"InChI=1S/C4H8Cl2/c1-2-4(6)3-5/h4H,2-3H2,1H3",PQBOTZNYFQWRHU-UHFFFAOYSA-N,?,124.1,102716
102718,616-24-0,616-24-0,CCC(N)CC,3-Pentanamine,3-Pentanamine,pentan-3-amine,21717,DTXSID8060662,CCC(N)CC,"InChI=1S/C5H13N/c1-3-5(6)4-2/h5H,3-4,6H2,1-2H3",PQPFFKCJENSZKL-UHFFFAOYSA-N,?,89.0,102718
102719,616-25-1,NOCAS_862293,CCC(O)C=C,1-PENTEN-3-OL,,,21718,DTXSID70862293,CCC(O)C=C,"InChI=1S/C5H10O/c1-3-5(6)4-2/h3,5-6H,1,4H2,2H3",VHVMXWZXFBOANQ-UHFFFAOYSA-N,?,115.0,102719
102720,616-27-3,616-27-3,CCC(=O)CCl,"2-BUTANONE, 1-CHLORO-",1-Chlorobutan-2-one,1-Chlorobutan-2-one,21719,DTXSID10210597,CCC(=O)CCl,"InChI=1S/C4H7ClO/c1-2-4(6)3-5/h2-3H2,1H3",AALRHBLMAVGWRR-UHFFFAOYSA-N,?,137.5,102720
102722,616-38-6,616-38-6,COC(=O)OC,"Carbonic acid, dimethyl ester",Dimethyl carbonate,dimethyl carbonate,21721,DTXSID9029192,COC(=O)OC,InChI=1S/C3H6O3/c1-5-3(4)6-2/h1-2H3,IEJIGPNLZYLLBP-UHFFFAOYSA-N,?,90.5,102722
102723,616-39-7,616-39-7,CN(CC)CC,"Ethanamine, N-ethyl-N-methyl-","Ethanamine, N-ethyl-N-methyl-",N-ethyl-N-methylethanamine,21722,DTXSID8060664,CN(CC)CC,"InChI=1S/C5H13N/c1-4-6(3)5-2/h4-5H2,1-3H3",GNVRJGIVDSQCOP-UHFFFAOYSA-N,?,66.0,102723
102724,616-40-0,NOCAS_870700,CCN(N)CC,"HYDRAZINE, 1,1-DIETHYL-",,,21723,DTXSID00870700,CCN(N)CC,"InChI=1S/C4H12N2/c1-3-6(5)4-2/h3-5H2,1-2H3",IFZHGQSUNAKKSN-UHFFFAOYSA-N,?,99.0,102724
102726,616-43-3,616-43-3,Cc1c[nH]cc1,3-Methylpyrrole,"1H-Pyrrole, 3-methyl-",3-methyl-1H-pyrrole,21725,DTXSID80210600,Cc1c[nH]cc1,"InChI=1S/C5H7N/c1-5-2-3-6-4-5/h2-4,6H,1H3",FEKWWZCCJDUWLY-UHFFFAOYSA-N,?,143.0,102726
102727,616-44-4,616-44-4,Cc1c[s]cc1,3-METHYLTHIOPHENE,"Thiophene, 3-methyl-",3-Methylthiophene,21726,DTXSID8060666,Cc1c[s]cc1,"InChI=1S/C5H6S/c1-5-2-3-6-4-5/h2-4H,1H3",QENGPZGAWFQWCZ-UHFFFAOYSA-N,?,115.5,102727
102728,616-45-5,616-45-5,O=C1CCCN1,PYRROLIDONE,2-Pyrrolidinone,pyrrolidin-2-one,21727,DTXSID8027246,O=C1CCCN1,"InChI=1S/C4H7NO/c6-4-2-1-3-5-4/h1-3H2,(H,5,6)",HNJBEVLQSNELDL-UHFFFAOYSA-N,?,245.0,102728
102730,616-55-7,616-55-7,Cc1cc(cc(c1O)C(C)(C)C)C(C)(C)C,"Phenol, 2,4-bis(1,1-dimethylethyl)-6-methyl-","Phenol, 2,4-bis(1,1-dimethylethyl)-6-methyl-","2,4-ditert-butyl-6-methylphenol",21729,DTXSID3060667,Cc1cc(cc(c1O)C(C)(C)C)C(C)(C)C,"InChI=1S/C15H24O/c1-10-8-11(14(2,3)4)9-12(13(10)16)15(5,6)7/h8-9,16H,1-7H3",ZZZRZBIPCKQDQR-UHFFFAOYSA-N,?,269.0,102730
102731,617-02-7,617-02-7,Cc1ccccc1OC(=O)c1ccccc1,"BENZOIC ACID, 2-METHYLPHENYL ESTER",o-Tolyl benzoate,(2-methylphenyl) benzoate,21730,DTXSID30210695,Cc1ccccc1OC(=O)c1ccccc1,"InChI=1S/C14H12O2/c1-11-7-5-6-10-13(11)16-14(15)12-8-3-2-4-9-12/h2-10H,1H3",YPMKPCAILYDVBN-UHFFFAOYSA-N,?,309.0,102731
102732,617-05-0,617-05-0,COc1cc(ccc1O)C(=O)OCC,"BENZOIC ACID, 4-HYDROXY-3-METHOXY-, ETHYL ESTER","Benzoic acid, 4-hydroxy-3-methoxy-, ethyl ester",Ethyl 4-hydroxy-3-methoxybenzoate,21731,DTXSID2060670,COc1cc(ccc1O)C(=O)OCC,"InChI=1S/C10H12O4/c1-3-14-10(12)7-4-5-8(11)9(6-7)13-2/h4-6,11H,3H2,1-2H3",MWAYRGBWOVHDDZ-UHFFFAOYSA-N,?,292.0,102732
102734,617-33-4,617-33-4,CCOC(=O)C(Br)Br,"Acetic acid, dibromo-, ethyl ester","Acetic acid, dibromo-, ethyl ester","ethyl 2,2-dibromoacetate",21733,DTXSID7060673,CCOC(=O)C(Br)Br,"InChI=1S/C4H6Br2O2/c1-2-8-4(7)3(5)6/h3H,2H2,1H3",NIJGVVHCUXNSLL-UHFFFAOYSA-N,?,194.0,102734
102735,617-35-6,617-35-6,CC(=O)C(=O)OCC,"Propanoic acid, 2-oxo-, ethyl ester","Propanoic acid, 2-oxo-, ethyl ester",Ethyl 2-oxopropanoate,21734,DTXSID2060674,CC(=O)C(=O)OCC,"InChI=1S/C5H8O3/c1-3-8-5(7)4(2)6/h3H2,1-2H3",XXRCUYVCPSWGCC-UHFFFAOYSA-N,?,155.0,102735
102736,617-50-5,NOCAS_862297,CC(C)C(=O)OC(C)C,ISOPROPYL ISOBUTYRATE,,,21735,DTXSID10862297,CC(C)C(=O)OC(C)C,"InChI=1S/C7H14O2/c1-5(2)7(8)9-6(3)4/h5-6H,1-4H3",WVRPFQGZHKZCEB-UHFFFAOYSA-N,?,120.7,102736
102738,617-52-7,617-52-7,COC(=O)CC(=C)C(=O)OC,"BUTANEDIOIC ACID, METHYLENE-, DIMETHYL ESTER",Dimethyl itaconate,dimethyl 2-methylidenebutanedioate,21737,DTXSID80210701,COC(=O)CC(=C)C(=O)OC,"InChI=1S/C7H10O4/c1-5(7(9)11-3)4-6(8)10-2/h1,4H2,2-3H3",ZWWQRMFIZFPUAA-UHFFFAOYSA-N,?,208.0,102738
102741,617-75-4,617-75-4,CC[As](CC)CC,Triethylarsine,Arsine triethyl-,triethylarsane,21738,DTXSID40210702,CC[As](CC)CC,"InChI=1S/C6H15As/c1-4-7(5-2)6-3/h4-6H2,1-3H3",WWVNWQJKWKSDQM-UHFFFAOYSA-N,?,138.5,102741
102742,617-78-7,617-78-7,CCC(CC)CC,3-ETHYLPENTANE,"Pentane, 3-ethyl-",3-Ethylpentane,21739,DTXSID8073211,CCC(CC)CC,"InChI=1S/C7H16/c1-4-7(5-2)6-3/h7H,4-6H2,1-3H3",AORMDLNPRGXHHL-UHFFFAOYSA-N,?,93.5,102742
102744,617-83-4,617-83-4,CCN(CC)C#N,DIETHYLCYANAMIDE,"Cyanamide, diethyl-",Diethylcyanamide,21741,DTXSID20210705,CCN(CC)C#N,"InChI=1S/C5H10N2/c1-3-7(4-2)5-6/h3-4H2,1-2H3",ZZTSQZQUWBFTAT-UHFFFAOYSA-N,?,188.0,102744
102745,617-84-5,617-84-5,CCN(CC)C=O,"N,N-DIETHYLFORMAMIDE",Diethylformamide,"N,N-diethylformamide",21742,DTXSID3020463,CCN(CC)C=O,"InChI=1S/C5H11NO/c1-3-6(4-2)5-7/h5H,3-4H2,1-2H3",SUAKHGWARZSWIH-UHFFFAOYSA-N,?,177.5,102745
102747,617-86-7,NOCAS_870702,CC[SiH](CC)CC,TRIETHYLSILANE,,,21743,DTXSID20870702,CC[SiH](CC)CC,"InChI=1S/C6H16Si/c1-4-7(5-2)6-3/h7H,4-6H2,1-3H3",AQRLNPVMDITEJU-UHFFFAOYSA-N,?,109.0,102747
102749,617-90-3,617-90-3,N#Cc1ccco1,2-CYANOFURAN,2-Furonitrile,furan-2-carbonitrile,21745,DTXSID40210707,N#Cc1ccco1,InChI=1S/C5H3NO/c6-4-5-2-1-3-7-5/h1-3H,YXDXXGXWFJCXEB-UHFFFAOYSA-N,?,147.0,102749
102750,617-92-5,NOCAS_870703,CC[n]1cccc1,"1H-PYRROLE, 1-ETHYL-",,,21746,DTXSID80870703,CC[n]1cccc1,"InChI=1S/C6H9N/c1-2-7-5-3-4-6-7/h3-6H,2H2,1H3",VPUAYOJTHRDUTK-UHFFFAOYSA-N,?,129.5,102750
102751,617-94-7,617-94-7,CC(C)(O)c1ccccc1,2-PHENYL ISOPROPANOL,2-Phenylpropan-2-ol,2-phenylpropan-2-ol,21747,DTXSID3027247,CC(C)(O)c1ccccc1,"InChI=1S/C9H12O/c1-9(2,10)8-6-4-3-5-7-8/h3-7,10H,1-2H3",BDCFWIDZNLCTMF-UHFFFAOYSA-N,?,202.0,102751
102753,618-34-8,NOCAS_870704,C=C(Cl)c1ccccc1,"BENZENE, (1-CHLOROETHENYL)-",,,21749,DTXSID40870704,C=C(Cl)c1ccccc1,"InChI=1S/C8H7Cl/c1-7(9)8-5-3-2-4-6-8/h2-6H,1H2",XHAFIUUYXQFJEW-UHFFFAOYSA-N,?,199.0,102753
102755,618-40-6,618-40-6,CN(N)c1ccccc1,"Hydrazine, 1-methyl-1-phenyl-","Hydrazine, 1-methyl-1-phenyl-",1-Methyl-1-phenylhydrazine,21750,DTXSID2060678,CN(N)c1ccccc1,"InChI=1S/C7H10N2/c1-9(8)7-5-3-2-4-6-7/h2-6H,8H2,1H3",MWOODERJGVWYJE-UHFFFAOYSA-N,?,228.0,102755
102756,618-42-8,618-42-8,CC(=O)N1CCCCC1,"Piperidine, 1-acetyl-","Piperidine, 1-acetyl-",1-piperidin-1-ylethanone,21751,DTXSID7060679,CC(=O)N1CCCCC1,"InChI=1S/C7H13NO/c1-7(9)8-5-3-2-4-6-8/h2-6H2,1H3",KDISMIMTGUMORD-UHFFFAOYSA-N,?,226.5,102756
102758,618-46-2,618-46-2,O=C(Cl)c1cc(Cl)ccc1,M-CHLOROBENZOYLCHLORIDE,"Benzoyl chloride, 3-chloro-",3-Chlorobenzoyl chloride,21753,DTXSID1060681,O=C(Cl)c1cc(Cl)ccc1,InChI=1S/C7H4Cl2O/c8-6-3-1-2-5(4-6)7(9)10/h1-4H,WHIHIKVIWVIIER-UHFFFAOYSA-N,?,225.0,102758
102759,618-85-9,618-85-9,Cc1cc(cc(c1)[N+]([O-])=O)[N+]([O-])=O,"3,5-Dinitrotoluene","3,5-Dinitrotoluene","1-Methyl-3,5-dinitrobenzene",21754,DTXSID40210803,Cc1cc(cc(c1)[N+]([O-])=O)[N+]([O-])=O,"InChI=1S/C7H6N2O4/c1-5-2-6(8(10)11)4-7(3-5)9(12)13/h2-4H,1H3",RUIFULUFLANOCI-UHFFFAOYSA-N,?,315.0,102759
102760,618-91-7,618-91-7,COC(=O)c1cccc(I)c1,"Benzoic acid, 3-iodo-, methyl ester","Benzoic acid, 3-iodo-, methyl ester",Methyl 3-iodobenzoate,21755,DTXSID1060689,COC(=O)c1cccc(I)c1,"InChI=1S/C8H7IO2/c1-11-8(10)6-3-2-4-7(9)5-6/h2-5H,1H3",NPXOIGSBRLCOSD-UHFFFAOYSA-N,?,277.0,102760
102762,619-01-2,20549-48-8,C[C@@H]1CC[C@H](C[C@@H]1O)C(C)=C,Dihydrocarveol,"(1R,2S,4R)-Neo-dihydrocarveol, (1S,2R,4S)-Neo-dihydrocarveol",C10H18O,21757,DTXSID80332058,CC1CCC(CC1O)C(C)=C,"InChI=1S/C10H18O/c1-7(2)9-5-4-8(3)10(11)6-9/h8-11H,1,4-6H2,2-3H3",KRCZYMFUWVJCLI-UHFFFAOYSA-N,?,224.5,102762
102764,619-15-8,619-15-8,Cc1cc(ccc1[N+]([O-])=O)[N+]([O-])=O,"2,5-DINITROTOLUENE","2,5-Dinitrotoluene","2-methyl-1,4-dinitrobenzene",21758,DTXSID8027248,Cc1cc(ccc1[N+]([O-])=O)[N+]([O-])=O,"InChI=1S/C7H6N2O4/c1-5-4-6(8(10)11)2-3-7(5)9(12)13/h2-4H,1H3",KZBOXYKTSUUBTO-UHFFFAOYSA-N,?,284.0,102764
102765,619-31-8,619-31-8,CN(C)c1cc(ccc1)[N+]([O-])=O,"BENZENAMINE, N,N-DIMETHYL-3-NITRO-","Benzenamine, N,N-dimethyl-3-nitro-","N,N-Dimethyl-3-nitroaniline",21759,DTXSID5060699,CN(C)c1cc(ccc1)[N+]([O-])=O,"InChI=1S/C8H10N2O2/c1-9(2)7-4-3-5-8(6-7)10(11)12/h3-6H,1-2H3",CJDICMLSLYHRPT-UHFFFAOYSA-N,?,282.5,102765
102767,619-52-3,619-52-3,CC(C)C1CC[C@@H](C)CC=1,"CYCLOHEXENE, 4-METHYL-1-(1-METHYLETHYL)-, (R)-",,,21761,DTXSID70876133,CC(C)C1CCC(C)CC=1,"InChI=1S/C10H18/c1-8(2)10-6-4-9(3)5-7-10/h6,8-9H,4-5,7H2,1-3H3",YYCPSEFQLGXPCO-UHFFFAOYSA-N,?,167.5,102767
102768,619-99-8,619-99-8,CCCC(CC)CC,3-ETHYLHEXANE,3-Ethylhexane,3-Ethylhexane,21762,DTXSID6060713,CCCC(CC)CC,"InChI=1S/C8H18/c1-4-7-8(5-2)6-3/h8H,4-7H2,1-3H3",SFRKSDZMZHIISH-UHFFFAOYSA-N,?,118.6,102768
102769,620-02-0,620-02-0,Cc1ccc(C=O)o1,"2-FURANCARBOXALDEHYDE, 5-METHYL-","2-Furancarboxaldehyde, 5-methyl-",5-Methylfuran-2-carbaldehyde,21763,DTXSID1060714,Cc1ccc(C=O)o1,"InChI=1S/C6H6O2/c1-5-2-3-6(4-7)8-5/h2-4H,1H3",OUDFNZMQXZILJD-UHFFFAOYSA-N,?,187.0,102769
102771,620-12-2,620-12-2,[O-][N+](=O)OC(CO)CO,GLYCEROL-BETA-NITRATE,Glycerol-2-nitrate,"1,3-dihydroxypropan-2-yl nitrate",21765,DTXSID80211031,[O-][N+](=O)OC(CO)CO,"InChI=1S/C3H7NO5/c5-1-3(2-6)9-4(7)8/h3,5-6H,1-2H2",QYZBMMOLPVKAPU-UHFFFAOYSA-N,?,157.5,102771
102772,620-13-3,620-13-3,Cc1cc(CBr)ccc1,"Benzene, 1-(bromomethyl)-3-methyl-","Benzene, 1-(bromomethyl)-3-methyl-",1-(Bromomethyl)-3-methylbenzene,21766,DTXSID1060716,Cc1cc(CBr)ccc1,"InChI=1S/C8H9Br/c1-7-3-2-4-8(5-7)6-9/h2-5H,6H2,1H3",FWLWTILKTABGKQ-UHFFFAOYSA-N,?,212.5,102772
102773,620-14-4,620-14-4,Cc1cccc(CC)c1,M-ETHYLTOLUENE,3-Ethyltoluene,1-ethyl-3-methylbenzene,21767,DTXSID6050386,Cc1cccc(CC)c1,"InChI=1S/C9H12/c1-3-9-6-4-5-8(2)7-9/h4-7H,3H2,1-2H3",ZLCSFXXPPANWQY-UHFFFAOYSA-N,?,161.3,102773
102775,620-17-7,620-17-7,CCc1cccc(O)c1,M-ETHYLPHENOL,3-Ethylphenol,3-ethylphenol,21769,DTXSID0022480,CCc1cccc(O)c1,"InChI=1S/C8H10O/c1-2-7-4-3-5-8(9)6-7/h3-6,9H,2H2,1H3",HMNKTRSOROOSPP-UHFFFAOYSA-N,?,218.4,102775
102776,620-19-9,620-19-9,Cc1cc(CCl)ccc1,"BENZENE, 1-(CHLOROMETHYL)-3-METHYL-",m-Xylyl chloride,1-(chloromethyl)-3-methylbenzene,21770,DTXSID60211034,Cc1cc(CCl)ccc1,"InChI=1S/C8H9Cl/c1-7-3-2-4-8(5-7)6-9/h2-5H,6H2,1H3",LZBOHNCMCCSTJX-UHFFFAOYSA-N,?,195.5,102776
102777,620-20-2,620-20-2,Clc1cccc(CCl)c1,"Benzene, 1-chloro-3-(chloromethyl)-",1-Chloro-3-(chloromethyl)-benzene,1-chloro-3-(chloromethyl)benzene,21771,DTXSID2057786,Clc1cccc(CCl)c1,"InChI=1S/C7H6Cl2/c8-5-6-2-1-3-7(9)4-6/h1-4H,5H2",DDGRAFHHXYIQQR-UHFFFAOYSA-N,?,216.0,102777
102779,620-23-5,620-23-5,Cc1cc(C=O)ccc1,"Benzaldehyde, 3-methyl-","Benzaldehyde, 3-methyl-",3-Methylbenzaldehyde,21773,DTXSID6060717,Cc1cc(C=O)ccc1,"InChI=1S/C8H8O/c1-7-3-2-4-8(5-7)6-9/h2-6H,1H3",OVWYEQOVUDKZNU-UHFFFAOYSA-N,?,199.0,102779
102780,620-40-6,620-40-6,C(c1ccccc1)N(Cc1ccccc1)Cc1ccccc1,"Benzenemethanamine, N,N-bis(phenylmethyl)-",Tribenzylamine,"N,N-dibenzyl-1-phenylmethanamine",21774,DTXSID5047031,C(c1ccccc1)N(Cc1ccccc1)Cc1ccccc1,"InChI=1S/C21H21N/c1-4-10-19(11-5-1)16-22(17-20-12-6-2-7-13-20)18-21-14-8-3-9-15-21/h1-15H,16-18H2",MXHTZQSKTCCMFG-UHFFFAOYSA-N,?,385.0,102780
102781,620-63-3,620-63-3,CC(C)CC(=O)OC(COC(=O)CC(C)C)COC(=O)CC(C)C,"Butanoic acid, 3-methyl-, 1,2,3-propanetriyl est","Butanoic acid, 3-methyl-, 1,2,3-propanetriyl ester","1,3-bis(3-methylbutanoyloxy)propan-2-yl 3-methylbutanoate",21775,DTXSID5060720,CC(C)CC(=O)OC(COC(=O)CC(C)C)COC(=O)CC(C)C,"InChI=1S/C18H32O6/c1-12(2)7-16(19)22-10-15(24-18(21)9-14(5)6)11-23-17(20)8-13(3)4/h12-15H,7-11H2,1-6H3",HZGMZSCMYSGJTL-UHFFFAOYSA-N,?,332.5,102781
102783,620-73-5,620-73-5,O=C(CCl)Oc1ccccc1,"Acetic acid, chloro-, phenyl ester","Acetic acid, chloro-, phenyl ester",phenyl 2-chloroacetate,21777,DTXSID5060722,O=C(CCl)Oc1ccccc1,"InChI=1S/C8H7ClO2/c9-6-8(10)11-7-4-2-1-3-5-7/h1-5H,6H2",AGUWUIVKDXDKBT-UHFFFAOYSA-N,?,232.5,102783
102786,620-83-7,620-83-7,Cc1ccc(Cc2ccccc2)cc1,"BENZENE, 1-METHYL-4-(PHENYLMETHYL)-","Benzene, 1-methyl-4-(phenylmethyl)-",1-methyl-4-(phenylmethyl)benzene,21778,DTXSID70211045,Cc1ccc(Cc2ccccc2)cc1,"InChI=1S/C14H14/c1-12-7-9-14(10-8-12)11-13-5-3-2-4-6-13/h2-10H,11H2,1H3",SIYISNUJKMAQBV-UHFFFAOYSA-N,?,286.0,102786
102787,620-85-9,620-85-9,CCc1ccc(Cc2ccccc2)cc1,4-ETHYL-DIPHENYLMETHANE,"Benzene, 1-ethyl-4-(phenylmethyl)-",1-Ethyl-4-(phenylmethyl)benzene,21779,DTXSID30211046,CCc1ccc(Cc2ccccc2)cc1,"InChI=1S/C15H16/c1-2-13-8-10-15(11-9-13)12-14-6-4-3-5-7-14/h3-11H,2,12H2,1H3",HSHDPVRGPKOGME-UHFFFAOYSA-N,?,297.0,102787
102789,620-93-9,620-93-9,Cc1ccc(cc1)Nc1ccc(C)cc1,"Benzenamine, 4-methyl-N-(4-methylphenyl)-","4,4'-Dimethyldiphenylamine",4-methyl-N-(4-methylphenyl)aniline,21781,DTXSID5060726,Cc1ccc(cc1)Nc1ccc(C)cc1,"InChI=1S/C14H15N/c1-11-3-7-13(8-4-11)15-14-9-5-12(2)6-10-14/h3-10,15H,1-2H3",RHPVVNRNAHRJOQ-UHFFFAOYSA-N,?,330.5,102789
102790,620-95-1,620-95-1,C(c1c[n]ccc1)c1ccccc1,3-BENZYLPYRIDINE,3-Benzylpyridine,3-(phenylmethyl)pyridine,21782,DTXSID80211051,C(c1c[n]ccc1)c1ccccc1,"InChI=1S/C12H11N/c1-2-5-11(6-3-1)9-12-7-4-8-13-10-12/h1-8,10H,9H2",UUCLVSDUMKMBSM-UHFFFAOYSA-N,?,287.0,102790
102791,621-14-7,621-14-7,O=C(CCC(=O)Oc1ccccc1)Oc1ccccc1,"Butanedioic acid, diphenyl ester","Butanedioic acid, diphenyl ester",diphenyl butanedioate,21783,DTXSID4060731,O=C(CCC(=O)Oc1ccccc1)Oc1ccccc1,"InChI=1S/C16H14O4/c17-15(19-13-7-3-1-4-8-13)11-12-16(18)20-14-9-5-2-6-10-14/h1-10H,11-12H2",YDPPRPIIZGLGCJ-UHFFFAOYSA-N,?,330.0,102791
102793,621-27-2,621-27-2,CCCc1cc(O)ccc1,3-Propylphenol,3-Propylphenol,3-Propylphenol,21785,DTXSID10211145,CCCc1cc(O)ccc1,"InChI=1S/C9H12O/c1-2-4-8-5-3-6-9(10)7-8/h3,5-7,10H,2,4H2,1H3",MPWGZBWDLMDIHO-UHFFFAOYSA-N,?,228.0,102793
102794,621-32-9,621-32-9,Cc1cccc(c1)OCC,"Benzene, 1-ethoxy-3-methyl-",3-Ethoxytoluene,1-Ethoxy-3-methylbenzene,21786,DTXSID4060733,Cc1cccc(c1)OCC,"InChI=1S/C9H12O/c1-3-10-9-6-4-5-8(2)7-9/h4-7H,3H2,1-2H3",UALKQROXOHJHFG-UHFFFAOYSA-N,?,192.0,102794
102795,621-52-3,621-52-3,CCOc1cc(ccc1)[N+]([O-])=O,3-Ethoxynitrobenzene,3-Nitrophenetole,1-Ethoxy-3-nitrobenzene,21787,DTXSID40211153,CCOc1cc(ccc1)[N+]([O-])=O,"InChI=1S/C8H9NO3/c1-2-12-8-5-3-4-7(6-8)9(10)11/h3-6H,2H2,1H3",LFOLBPDHVGDKGJ-UHFFFAOYSA-N,?,264.0,102795
102797,621-63-6,621-63-6,CCOC(CO)OCC,"ETHANOL, 2,2-DIETHOXY-","2,2-Diethoxyethanol","2,2-DIETHOXYETHANOL",21789,DTXSID60211155,CCOC(CO)OCC,"InChI=1S/C6H14O3/c1-3-8-6(5-7)9-4-2/h6-7H,3-5H2,1-2H3",IKKUKDZKIIIKJK-UHFFFAOYSA-N,?,167.0,102797
102798,621-64-7,621-64-7,CCCN(CCC)N=O,N-NITROSODIPROPYLAMINE,N-Nitrosodipropylamine,N-nitroso-N-propylpropan-1-amine,21790,DTXSID6021032,CCCN(CCC)N=O,"InChI=1S/C6H14N2O/c1-3-5-8(7-9)6-4-2/h3-6H2,1-2H3",YLKFDHTUAUWZPQ-UHFFFAOYSA-N,?,206.0,102798
102799,621-76-1,621-76-1,CCCOC(OCCC)OCCC,1-Dipropoxymethoxy-propane,Tripropyl orthoformate,1-(dipropoxymethoxy)propane,21791,DTXSID4044450,CCCOC(OCCC)OCCC,"InChI=1S/C10H22O3/c1-4-7-11-10(12-8-5-2)13-9-6-3/h10H,4-9H2,1-3H3",RWNXXQFJBALKAX-UHFFFAOYSA-N,?,191.0,102799
102802,621-87-4,621-87-4,CC(=O)COc1ccccc1,"2-PROPANONE, 1-PHENOXY-","2-Propanone, 1-phenoxy-",1-(phenoxy)propan-2-one,21794,DTXSID3060740,CC(=O)COc1ccccc1,"InChI=1S/C9H10O2/c1-8(10)7-11-9-5-3-2-4-6-9/h2-6H,7H2,1H3",QWAVNXZAQASOML-UHFFFAOYSA-N,?,229.5,102802
102804,622-16-2,622-16-2,c1ccccc1N=C=Nc1ccccc1,"Benzenamine, N,N'-methanetetraylbis-","Benzenamine, N,N'-methanetetraylbis-","N,N'-di(phenyl)methanediimine",21795,DTXSID3060746,c1ccccc1N=C=Nc1ccccc1,InChI=1S/C13H10N2/c1-3-7-12(8-4-1)14-11-15-13-9-5-2-6-10-13/h1-10H,CMESPBFFDMPSIY-UHFFFAOYSA-N,?,331.0,102804
102806,622-26-4,622-26-4,OCCC1CCNCC1,4-Piperidineethanol,4-Piperidineethanol,2-piperidin-4-ylethanol,21796,DTXSID8060749,OCCC1CCNCC1,"InChI=1S/C7H15NO/c9-6-3-7-1-4-8-5-2-7/h7-9H,1-6H2",LDSQQXKSEFZAPE-UHFFFAOYSA-N,?,227.5,102806
102808,622-32-2,932-90-1,ON=Cc1ccccc1,"BENZALDEHYDE, OXIME, (Z)-","Benzaldehyde, oxime",?,21798,DTXSID6061313,O=NCc1ccccc1,"InChI=1S/C7H7NO/c9-8-6-7-4-2-1-3-5-7/h1-5H,6H2",VBXAEFHLULAXHG-UHFFFAOYSA-N,?,200.0,102808
102809,622-38-8,622-38-8,CCSc1ccccc1,PHENYL ETHYL SULFIDE,(Ethylthio)benzene,ethylsulfanylbenzene,21799,DTXSID60211236,CCSc1ccccc1,"InChI=1S/C8H10S/c1-2-9-8-6-4-3-5-7-8/h3-7H,2H2,1H3",AEHWKBXBXYNPCX-UHFFFAOYSA-N,?,205.0,102809