ChemID,source_casrn,CAS,SMILES,NAME,preferred_name,iupac,MPID,dsstox_substance_id,Canonical_QSARr,InChI_Code_QSARr,InChI Key_QSARr,Salt_Solvent,BP,ID
100137,75-56-9,75-56-9,CC1CO1,PROPYLENE OXIDE,"1,2-Propylene oxide",2-methyloxirane,19223,DTXSID5021207,CC1CO1,"InChI=1S/C3H6O/c1-3-2-4-3/h3H,2H2,1H3",GOOHAUXETOMSMM-UHFFFAOYSA-N,?,35.0,100137
100138,75-61-6,75-61-6,FC(F)(Br)Br,DIBROMODIFLUOROMETHANE,Dibromodifluoromethane,dibromo-difluoromethane,19224,DTXSID9058789,FC(F)(Br)Br,"InChI=1S/CBr2F2/c2-1(3,4)5",AZSZCFSOHXEJQE-UHFFFAOYSA-N,?,25.0,100138
100139,75-62-7,75-62-7,ClC(Cl)(Cl)Br,BROMOTRICHLOROMETHANE,Bromotrichloromethane,bromo(trichloro)methane,19225,DTXSID7023930,ClC(Cl)(Cl)Br,"InChI=1S/CBrCl3/c2-1(3,4)5",XNNQFQFUQLJSQT-UHFFFAOYSA-N,?,105.0,100139
100141,75-64-9,75-64-9,CC(C)(C)N,T-BUTYLAMINE,tert-Butylamine,2-methylpropan-2-amine,19227,DTXSID5024681,CC(C)(C)N,"InChI=1S/C4H11N/c1-4(2,3)5/h5H2,1-3H3",YBRBMKDOPFTVDT-UHFFFAOYSA-N,?,45.0,100141
100142,75-65-0,75-65-0,CC(C)(C)O,T-BUTANOL,tert-Butyl alcohol,2-methylpropan-2-ol,19228,DTXSID8020204,CC(C)(C)O,"InChI=1S/C4H10O/c1-4(2,3)5/h5H,1-3H3",DKGAVHZHDRPRBM-UHFFFAOYSA-N,?,82.4,100142
100143,75-66-1,75-66-1,CC(C)(C)S,2-METHYL-2-PROPANETHIOL,2-Methyl-2-propanethiol,2-methylpropane-2-thiol,19229,DTXSID0026418,CC(C)(C)S,"InChI=1S/C4H10S/c1-4(2,3)5/h5H,1-3H3",WMXCDAVJEZZYLT-UHFFFAOYSA-N,?,64.0,100143
100145,75-69-4,75-69-4,FC(Cl)(Cl)Cl,TRICHLOROFLUOROMETHANE,Trichlorofluoromethane,trichloro(fluoro)methane,19231,DTXSID5021384,FC(Cl)(Cl)Cl,"InChI=1S/CCl3F/c2-1(3,4)5",CYRMSUTZVYGINF-UHFFFAOYSA-N,?,23.7,100145
100146,75-71-8,75-71-8,FC(F)(Cl)Cl,DICHLORODIFLUOROMETHANE,Dichlorodifluoromethane,dichloro(difluoro)methane,19232,DTXSID6020436,FC(F)(Cl)Cl,"InChI=1S/CCl2F2/c2-1(3,4)5",PXBRQCKWGAHEHS-UHFFFAOYSA-N,?,-29.8,100146
100147,75-72-9,75-72-9,FC(F)(F)Cl,CHLOROTRIFLUOROMETHANE,Chlorotrifluoromethane,chloro(trifluoro)methane,19233,DTXSID4052500,FC(F)(F)Cl,"InChI=1S/CClF3/c2-1(3,4)5",AFYPFACVUDMOHA-UHFFFAOYSA-N,?,-81.4,100147
100150,75-76-3,75-76-3,C[Si](C)(C)C,TETRAMETHYLSILANE,Tetramethylsilane,tetramethylsilane,19235,DTXSID9026423,C[Si](C)(C)C,"InChI=1S/C4H12Si/c1-5(2,3)4/h1-4H3",CZDYPVPMEAXLPK-UHFFFAOYSA-N,?,26.6,100150
100151,75-77-4,75-77-4,C[Si](C)(C)Cl,CHLOROTRIMETHYLSILANE,Chlorotrimethylsilane,chloro(trimethyl)silane,19236,DTXSID2024822,C[Si](C)(C)Cl,"InChI=1S/C3H9ClSi/c1-5(2,3)4/h1-3H3",IJOOHPMOJXWVHK-UHFFFAOYSA-N,?,60.0,100151
100152,75-78-5,75-78-5,C[Si](C)(Cl)Cl,DICHLORODIMETHYLSILANE,Dimethyldichlorosilane,dichloro(dimethyl)silane,19237,DTXSID9026425,C[Si](C)(Cl)Cl,"InChI=1S/C2H6Cl2Si/c1-5(2,3)4/h1-2H3",LIKFHECYJZWXFJ-UHFFFAOYSA-N,?,70.3,100152
100154,75-81-0,75-81-0,ClC(Cl)(Br)CBr,"Ethane, 1,2-dibromo-1,1-dichloro-","Ethane, 1,2-dibromo-1,1-dichloro-","1,2-Dibromo-1,1-dichloroethane",19239,DTXSID8058790,ClC(Cl)(Br)CBr,"InChI=1S/C2H2Br2Cl2/c3-1-2(4,5)6/h1H2",FIYBYNHDEOSJPL-UHFFFAOYSA-N,?,195.0,100154
100156,75-83-2,75-83-2,CCC(C)(C)C,"2,2-DIMETHYLBUTANE","2,2-Dimethylbutane","2,2-dimethylbutane",19240,DTXSID4025111,CCC(C)(C)C,"InChI=1S/C6H14/c1-5-6(2,3)4/h5H2,1-4H3",HNRMPXKDFBEGFZ-UHFFFAOYSA-N,?,49.7,100156
100157,75-84-3,75-84-3,CC(C)(C)CO,"2,2-DIMETHYL-1-PROPANOL","2,2-Dimethylpropanol","2,2-dimethylpropan-1-ol",19241,DTXSID9052501,CC(C)(C)CO,"InChI=1S/C5H12O/c1-5(2,3)4-6/h6H,4H2,1-3H3",KPSSIOMAKSHJJG-UHFFFAOYSA-N,?,113.5,100157
100159,75-86-5,75-86-5,CC(C)(O)C#N,ACETONE CYANOHYDRIN,2-Hydroxy-2-methylpropanenitrile,2-hydroxy-2-methylpropanenitrile,19243,DTXSID7025427,CC(C)(O)C#N,"InChI=1S/C4H7NO/c1-4(2,6)3-5/h6H,1-2H3",MWFMGBPGAXYFAR-UHFFFAOYSA-N,?,171.0,100159
100160,75-87-6,75-87-6,O=CC(Cl)(Cl)Cl,TRICHLOROACETALDEHYDE,Chloral,trichloroacetaldehyde,19244,DTXSID7024744,O=CC(Cl)(Cl)Cl,"InChI=1S/C2HCl3O/c3-2(4,5)1-6/h1H",HFFLGKNGCAIQMO-UHFFFAOYSA-N,?,97.8,100160
100161,75-88-7,75-88-7,FC(F)(F)CCl,"1,1,1-TRIFLUORO-2-CHLOROETHANE","2-Chloro-1,1,1-trifluoroethane","2-chloro-1,1,1-trifluoroethane",19245,DTXSID5020289,FC(F)(F)CCl,"InChI=1S/C2H2ClF3/c3-1-2(4,5)6/h1H2",CYXIKYKBLDZZNW-UHFFFAOYSA-N,?,6.1,100161
100163,75-94-5,75-94-5,C=C[Si](Cl)(Cl)Cl,VINYLTRICHLOROSILANE,Trichloroethenylsilane,trichloro(ethenyl)silane,19247,DTXSID8026430,C=C[Si](Cl)(Cl)Cl,"InChI=1S/C2H3Cl3Si/c1-2-6(3,4)5/h2H,1H2",GQIUQDDJKHLHTB-UHFFFAOYSA-N,?,91.5,100163
100164,75-97-8,75-97-8,CC(=O)C(C)(C)C,"3,3-DIMETHYL-2-BUTANONE","3,3-Dimethyl-2-butanone","3,3-dimethylbutan-2-one",19248,DTXSID5021752,CC(=O)C(C)(C)C,"InChI=1S/C6H12O/c1-5(7)6(2,3)4/h1-4H3",PJGSXYOJTGTZAV-UHFFFAOYSA-N,?,106.1,100164
100165,75-98-9,75-98-9,CC(C)(C)C(O)=O,"2,2-Dimethyl propanoic acid","2,2-Dimethylpropanoic acid","2,2-dimethylpropanoic acid",19249,DTXSID8026432,CC(C)(C)C(O)=O,"InChI=1S/C5H10O2/c1-5(2,3)4(6)7/h1-3H3,(H,6,7)",IUGYQRQAERSCNH-UHFFFAOYSA-N,?,164.0,100165
100167,76-00-6,NOCAS_870395,CC(O)C(Cl)(Cl)Cl,"1,1,1-Trichloro-2-propanol",,,19251,DTXSID90870395,CC(O)C(Cl)(Cl)Cl,"InChI=1S/C3H5Cl3O/c1-2(7)3(4,5)6/h2,7H,1H3",HCMBPASAOZIEDZ-UHFFFAOYSA-N,?,163.0,100167
100168,76-01-7,76-01-7,ClC(Cl)C(Cl)(Cl)Cl,PENTACHLOROETHANE,Pentachloroethane,"1,1,1,2,2-pentachloroethane",19252,DTXSID7021104,ClC(Cl)C(Cl)(Cl)Cl,"InChI=1S/C2HCl5/c3-1(4)2(5,6)7/h1H",BNIXVQGCZULYKV-UHFFFAOYSA-N,?,159.8,100168
100169,76-02-8,76-02-8,O=C(Cl)C(Cl)(Cl)Cl,TRICHLORACETYLCHLORIDE,Trichloroacetyl chloride,trichloroacetyl chloride,19253,DTXSID9034070,O=C(Cl)C(Cl)(Cl)Cl,"InChI=1S/C2Cl4O/c3-1(7)2(4,5)6",PVFOMCVHYWHZJE-UHFFFAOYSA-N,?,117.9,100169
100171,76-04-0,76-04-0,OC(=O)C(F)(F)Cl,"Acetic acid, chlorodifluoro-","Acetic acid, chlorodifluoro-","2-chloro-2,2-difluoroacetic acid",19255,DTXSID8058792,OC(=O)C(F)(F)Cl,"InChI=1S/C2HClF2O2/c3-2(4,5)1(6)7/h(H,6,7)",OAWAZQITIZDJRB-UHFFFAOYSA-N,?,122.0,100171
100172,76-05-1,76-05-1,OC(=O)C(F)(F)F,TRIFLUOROACETIC ACID,"Acetic acid, trifluoro-",trifluoroacetic acid,19256,DTXSID9041578,OC(=O)C(F)(F)F,"InChI=1S/C2HF3O2/c3-2(4,5)1(6)7/h(H,6,7)",DTQVDTLACAAQTR-UHFFFAOYSA-N,?,73.0,100172
100173,76-06-2,76-06-2,[O-][N+](=O)C(Cl)(Cl)Cl,TRICHLORONITROMETHANE,Chloropicrin,trichloro(nitro)methane,19257,DTXSID0020315,[O-][N+](=O)C(Cl)(Cl)Cl,"InChI=1S/CCl3NO2/c2-1(3,4)5(6)7",LFHISGNCFUNFFM-UHFFFAOYSA-N,?,112.0,100173
100175,76-11-9,76-11-9,FC(F)(Cl)C(Cl)(Cl)Cl,"1,1,1,2-TETRACHLORO-2,2-DIFLUOROETHANE",,,19259,DTXSID90861622,FC(F)(Cl)C(Cl)(Cl)Cl,"InChI=1S/C2Cl4F2/c3-1(4,5)2(6,7)8",SLGOCMATMKJJCE-UHFFFAOYSA-N,?,91.5,100175
100176,76-12-0,76-12-0,FC(Cl)(Cl)C(F)(Cl)Cl,"1,1,2,2,-TETRACHLORODIFLUOROETHANE","1,2-Difluoro-1,1,2,2-tetrachloroethane","1,1,2,2-tetrachloro-1,2-difluoroethane",19260,DTXSID5026091,FC(Cl)(Cl)C(F)(Cl)Cl,"InChI=1S/C2Cl4F2/c3-1(4,7)2(5,6)8",UGCSPKPEHQEOSR-UHFFFAOYSA-N,?,93.0,100176
100177,76-13-1,76-13-1,FC(F)(Cl)C(F)(Cl)Cl,"1,1,2-TRICHLOROTRIFLUOROETHANE","1,1,2-Trichloro-1,2,2-trifluoroethane","1,1,2-trichloro-1,2,2-trifluoroethane",19261,DTXSID6021377,FC(F)(Cl)C(F)(Cl)Cl,"InChI=1S/C2Cl3F3/c3-1(4,6)2(5,7)8",AJDIZQLSFPQPEY-UHFFFAOYSA-N,?,47.7,100177
100179,76-15-3,76-15-3,FC(F)(F)C(F)(F)Cl,CHLOROPENTAFLUOROETHANE,Chloropentafluoroethane,"1-chloro-1,1,2,2,2-pentafluoroethane",19263,DTXSID3026435,FC(F)(F)C(F)(F)Cl,"InChI=1S/C2ClF5/c3-1(4,5)2(6,7)8",RFCAUADVODFSLZ-UHFFFAOYSA-N,?,-37.9,100179
100180,76-16-4,76-16-4,FC(F)(F)C(F)(F)F,HEXAFLUOROETHANE,"Ethane, hexafluoro-",hexafluoroethane,19264,DTXSID2041915,FC(F)(F)C(F)(F)F,"InChI=1S/C2F6/c3-1(4,5)2(6,7)8",WMIYKQLTONQJES-UHFFFAOYSA-N,?,-78.1,100180
100181,76-17-5,76-17-5,FC(Cl)(C(F)(F)Cl)C(F)(F)Cl,"Propane, 1,2,3-trichloro-1,1,2,3,3-pentafluoro-","Propane, 1,2,3-trichloro-1,1,2,3,3-pentafluoro-","1,2,3-trichloro-1,1,2,3,3-pentafluoropropane",19265,DTXSID8058794,FC(Cl)(C(F)(F)Cl)C(F)(F)Cl,"InChI=1S/C3Cl3F5/c4-1(7,2(5,8)9)3(6,10)11",AIDLQDHQDQZVQM-UHFFFAOYSA-N,?,73.7,100181
100183,76-22-2|464-49-3,76-22-2|464-49-3,CC1(C)C2CC(=O)C1(C)CC2,"CAMPHOR, (1R,4R)-(+)-CAMPHOR",Camphor,"1,7,7-trimethylbicyclo[2.2.1]heptan-2-one",19267|20953,DTXSID5030955|DTXSID4024721,CC1(C)C2CC(=O)C1(C)CC2,"InChI=1S/C10H16O/c1-9(2)7-4-5-10(9,3)8(11)6-7/h7H,4-6H2,1-3H3",DSSYKIVIOFKYAU-UHFFFAOYSA-N,?,205.7,100183
100184,76-29-9,76-29-9,CC1(C)C2CCC1(C)C(=O)C2Br,3-Bromo-d-camphor,3-Bromo camphor,C10H15BrO,19268,DTXSID10858711,CC1(C)C2CCC1(C)C(=O)C2Br,"InChI=1S/C10H15BrO/c1-9(2)6-4-5-10(9,3)8(12)7(6)11/h6-7H,4-5H2,1-3H3",NJQADTYRAYFBJN-UHFFFAOYSA-N,?,274.0,100184
100185,76-35-7,NOCAS_870397,CC(O)C(C)(C)CO,"1,3-Butanediol, 2,2-dimethyl-",,,19269,DTXSID10870397,CC(O)C(C)(C)CO,"InChI=1S/C6H14O2/c1-5(8)6(2,3)4-7/h5,7-8H,4H2,1-3H3",QXKKYNIWAYERHT-UHFFFAOYSA-N,?,208.0,100185
100187,76-37-9,76-37-9,OCC(F)(F)C(F)F,"2,2,3,3-TETRAFLUOROPROPANOL","1-Propanol, 2,2,3,3-tetrafluoro-","2,2,3,3-Tetrafluoropropan-1-ol",19271,DTXSID8058796,OCC(F)(F)C(F)F,"InChI=1S/C3H4F4O/c4-2(5)3(6,7)1-8/h2,8H,1H2",NBUKAOOFKZFCGD-UHFFFAOYSA-N,?,109.5,100187
100188,76-38-0,76-38-0,COC(F)(F)C(Cl)Cl,METHOXYFLURANE,Methoxyflurane,"2,2-dichloro-1,1-difluoroethyl methyl ether",19272,DTXSID7025556,COC(F)(F)C(Cl)Cl,"InChI=1S/C3H4Cl2F2O/c1-8-3(6,7)2(4)5/h2H,1H3",RFKMCNOHBTXSMU-UHFFFAOYSA-N,?,105.0,100188
100189,76-44-8,76-44-8,ClC1(Cl)C2(Cl)C3C=CC(Cl)C3C1(Cl)C(Cl)=C2Cl,HEPTACHLOR,Heptachlor,"1,4,5,6,7,8,8-heptachloro-3a,4,7,7a-tetrahydro-1H-4,7-methanoindene",19273,DTXSID3020679,ClC1(Cl)C2(Cl)C3C=CC(Cl)C3C1(Cl)C(Cl)=C2Cl,"InChI=1S/C10H5Cl7/c11-4-2-1-3-5(4)9(15)7(13)6(12)8(3,14)10(9,16)17/h1-5H",FRCCEHPWNOQAEU-UHFFFAOYSA-N,?,310.0,100189
100191,76-83-5,76-83-5,ClC(c1ccccc1)(c1ccccc1)c1ccccc1,"BENZENE, 1,1',1''-(CHLOROMETHYLIDYNE)TRIS-",Trityl chloride,"1,1',1''-(chloromethanetriyl)tribenzene",19275,DTXSID3052511,ClC(c1ccccc1)(c1ccccc1)c1ccccc1,"InChI=1S/C19H15Cl/c20-19(16-10-4-1-5-11-16,17-12-6-2-7-13-17)18-14-8-3-9-15-18/h1-15H",JBWKIWSBJXDJDT-UHFFFAOYSA-N,?,310.0,100191
100192,76-84-6,76-84-6,OC(c1ccccc1)(c1ccccc1)c1ccccc1,TRIPHENYLCARBINOL,"Benzenemethanol, .alpha.,.alpha.-diphenyl-",tri(phenyl)methanol,19276,DTXSID0058803,OC(c1ccccc1)(c1ccccc1)c1ccccc1,"InChI=1S/C19H16O/c20-19(16-10-4-1-5-11-16,17-12-6-2-7-13-17)18-14-8-3-9-15-18/h1-15,20H",LZTRCELOJRDYMQ-UHFFFAOYSA-N,?,380.0,100192
100193,77-25-8,77-25-8,CCC(CC)(C(=O)OCC)C(=O)OCC,"Propanedioic acid, diethyl-, diethyl ester","Propanedioic acid, diethyl-, diethyl ester","diethyl 2,2-diethylpropanedioate",19277,DTXSID0058807,CCC(CC)(C(=O)OCC)C(=O)OCC,"InChI=1S/C11H20O4/c1-5-11(6-2,9(12)14-7-3)10(13)15-8-4/h5-8H2,1-4H3",ZKBBUZRGPULIRN-UHFFFAOYSA-N,?,230.0,100193
100195,77-73-6,77-73-6,C1C=CC2C3CC(C=C3)C21,DICYCLOPENTADIENE,Dicyclopentadiene,"3a,4,7,7a-tetrahydro-1H-4,7-methanoindene",19279,DTXSID5025023,C1C=CC2C3CC(C=C3)C21,"InChI=1S/C10H12/c1-2-9-7-4-5-8(6-7)10(9)3-1/h1-2,4-5,7-10H,3,6H2",HECLRDQVFMWTQS-UHFFFAOYSA-N,?,170.0,100195
100196,77-74-7,77-74-7,CC(O)(CC)CC,3-METHYL-3-PENTANOL,3-Methyl-3-pentanol,3-methylpentan-3-ol,19280,DTXSID0021755,CC(O)(CC)CC,"InChI=1S/C6H14O/c1-4-6(3,7)5-2/h7H,4-5H2,1-3H3",FRDAATYAJDYRNW-UHFFFAOYSA-N,?,122.4,100196
100197,77-75-8,77-75-8,CCC(C)(O)C#C,METHYL PENTYNOL,3-Methyl-1-pentyn-3-ol,3-methylpent-1-yn-3-ol,19281,DTXSID5021756,CCC(C)(O)C#C,"InChI=1S/C6H10O/c1-4-6(3,7)5-2/h1,7H,5H2,2-3H3",QXLPXWSKPNOQLE-UHFFFAOYSA-N,?,120.5,100197
100199,77-77-0,77-77-0,C=CS(=O)(=O)C=C,"1,1'-SULFONYLBISETHENE",Divinyl sulfone,diethenyl sulfone,19283,DTXSID6031253,C=CS(=O)(=O)C=C,"InChI=1S/C4H6O2S/c1-3-7(5,6)4-2/h3-4H,1-2H2",AFOSIXZFDONLBT-UHFFFAOYSA-N,?,234.5,100199
100200,77-81-6,77-81-6,CCOP(=O)(C#N)N(C)C,TABUN,,,19284,DTXSID80861631,CCOP(=O)(C#N)N(C)C,"InChI=1S/C5H11N2O2P/c1-4-9-10(8,5-6)7(2)3/h4H2,1-3H3",PJVJTCIRVMBVIA-UHFFFAOYSA-N,?,240.0,100200
100201,77-83-8,77-83-8,CC1(OC1C(=O)OCC)c1ccccc1,"Oxiranecarboxylic acid, 3-methyl-3-phenyl-, ethy",Ethyl methylphenylglycidate,ethyl 3-methyl-3-phenyloxirane-2-carboxylate,19285,DTXSID8020591,CC1(OC1C(=O)OCC)c1ccccc1,"InChI=1S/C12H14O3/c1-3-14-11(13)10-12(2,15-10)9-7-5-4-6-8-9/h4-8,10H,3H2,1-2H3",LQKRYVGRPXFFAV-UHFFFAOYSA-N,?,273.5,100201
100203,77-85-0,77-85-0,CC(CO)(CO)CO,"1,3-Propanediol, 2-(hydroxymethyl)-2-methyl-","2-(Hydroxymethyl)-2-methyl-1,3-propanediol","2-(hydroxymethyl)-2-methylpropane-1,3-diol",19287,DTXSID2026444,CC(CO)(CO)CO,"InChI=1S/C5H12O3/c1-5(2-6,3-7)4-8/h6-8H,2-4H2,1H3",QXJQHYBHAIHNGG-UHFFFAOYSA-N,?,283.0,100203
100204,77-93-0,77-93-0,CCOC(=O)C(O)(CC(=O)OCC)CC(=O)OCC,TRIETHYL CITRATE,Triethyl citrate,"triethyl 2-hydroxypropane-1,2,3-tricarboxylate",19288,DTXSID0040701,CCOC(=O)C(O)(CC(=O)OCC)CC(=O)OCC,"InChI=1S/C12H20O7/c1-4-17-9(13)7-12(16,11(15)19-6-3)8-10(14)18-5-2/h16H,4-8H2,1-3H3",DOOTYTYQINUNNV-UHFFFAOYSA-N,?,294.0,100204
100207,78-07-9,78-07-9,CC[Si](OCC)(OCC)OCC,Ethyl triethoxysilane,Ethyltriethoxysilane,triethoxy(ethyl)silane,19289,DTXSID7041962,CC[Si](OCC)(OCC)OCC,"InChI=1S/C8H20O3Si/c1-5-9-12(8-4,10-6-2)11-7-3/h5-8H2,1-4H3",DENFJSAFJTVPJR-UHFFFAOYSA-N,?,158.5,100207
100209,78-10-4,78-10-4,CCO[Si](OCC)(OCC)OCC,ETHYL SILICATE,Tetraethyl orthosilicate,tetraethyl orthosilicate,19291,DTXSID6026450,CCO[Si](OCC)(OCC)OCC,"InChI=1S/C8H20O4Si/c1-5-9-13(10-6-2,11-7-3)12-8-4/h5-8H2,1-4H3",BOTDANWDWHJENH-UHFFFAOYSA-N,?,168.8,100209
100210,78-26-2,78-26-2,CCCC(C)(CO)CO,"1,3-Propanediol, 2-methyl-2-propyl-","1,3-Propanediol, 2-methyl-2-propyl-","2-Methyl-2-propylpropane-1,3-diol",19292,DTXSID9058814,CCCC(C)(CO)CO,"InChI=1S/C7H16O2/c1-3-4-7(2,5-8)6-9/h8-9H,3-6H2,1-2H3",JVZZUPJFERSVRN-UHFFFAOYSA-N,?,234.0,100210
100211,78-27-3,78-27-3,C#CC1(O)CCCCC1,1-ETHYNYL CYCLOHEXANOL,1-Ethynylcyclohexanol,1-ethynylcyclohexanol,19293,DTXSID0021757,C#CC1(O)CCCCC1,"InChI=1S/C8H12O/c1-2-8(9)6-4-3-5-7-8/h1,9H,3-7H2",QYLFHLNFIHBCPR-UHFFFAOYSA-N,?,174.0,100211
100214,78-38-6,78-38-6,CCP(=O)(OCC)OCC,"Phosphonic acid, ethyl-, diethyl ester",Diethyl ethylphosphonate,diethyl ethylphosphonate,19295,DTXSID7025051,CCP(=O)(OCC)OCC,"InChI=1S/C6H15O3P/c1-4-8-10(7,6-3)9-5-2/h4-6H2,1-3H3",AATNZNJRDOVKDD-UHFFFAOYSA-N,?,198.0,100214
100215,78-39-7,78-39-7,CC(OCC)(OCC)OCC,"Ethane, 1,1,1-triethoxy-","Ethane, 1,1,1-triethoxy-","1,1,1-Triethoxyethane",19296,DTXSID4058815,CC(OCC)(OCC)OCC,"InChI=1S/C8H18O3/c1-5-9-8(4,10-6-2)11-7-3/h5-7H2,1-4H3",NDQXKKFRNOPRDW-UHFFFAOYSA-N,?,145.0,100215
100216,78-40-0,78-40-0,CCOP(=O)(OCC)OCC,TRIETHYL PHOSPHATE,Triethyl phosphate,triethyl phosphate,19297,DTXSID8026228,CCOP(=O)(OCC)OCC,"InChI=1S/C6H15O4P/c1-4-8-11(7,9-5-2)10-6-3/h4-6H2,1-3H3",DQWPFSLDHJDLRL-UHFFFAOYSA-N,?,215.5,100216
100218,78-62-6,78-62-6,C[Si](C)(OCC)OCC,DIMETHYL DIETHOXYSILANE,Diethoxy(dimethyl)silane,diethoxy(dimethyl)silane,19299,DTXSID6052538,C[Si](C)(OCC)OCC,"InChI=1S/C6H16O2Si/c1-5-7-9(3,4)8-6-2/h5-6H2,1-4H3",YYLGKUPAFFKGRQ-UHFFFAOYSA-N,?,114.0,100218
100219,78-66-0,78-66-0,CC(O)(CC)C#CC(C)(O)CC,"4-Octyne-3,6-diol, 3,6-dimethyl-","3,6-Dimethyl-4-octyne-3,6-diol","3,6-dimethyloct-4-yne-3,6-diol",19300,DTXSID1041475,CC(O)(CC)C#CC(C)(O)CC,"InChI=1S/C10H18O2/c1-5-9(3,11)7-8-10(4,12)6-2/h11-12H,5-6H2,1-4H3",NUYADIDKTLPDGG-UHFFFAOYSA-N,?,135.0,100219
100220,78-70-6|22564-99-4,78-70-6,CC(C)=CCCC(C)(O)C=C,"LINALOOL, 3,7-Dimethyl-octa-1,6-dien-3-ol",Linalool,"3,7-dimethylocta-1,6-dien-3-ol",19301|24413,DTXSID7025502,CC(C)=CCCC(C)(O)C=C,"InChI=1S/C10H18O/c1-5-10(4,11)8-6-7-9(2)3/h5,7,11H,1,6,8H2,2-4H3",CDOSHBSSFJOMGT-UHFFFAOYSA-N,?,197.5,100220
100222,78-75-1,NOCAS_870403,CC(Br)CBr,"1,2-DIBROMOPROPANE",,,19303,DTXSID60870403,CC(Br)CBr,"InChI=1S/C3H6Br2/c1-3(5)2-4/h3H,2H2,1H3",XFNJYAKDBJUJAJ-UHFFFAOYSA-N,?,141.9,100222
100223,78-76-2,78-76-2,CCC(C)Br,2-BROMOBUTANE,2-Bromobutane,2-bromobutane,19304,DTXSID7021499,CCC(C)Br,"InChI=1S/C4H9Br/c1-3-4(2)5/h4H,3H2,1-2H3",UPSXAPQYNGXVBF-UHFFFAOYSA-N,?,91.2,100223
100224,78-77-3,78-77-3,CC(C)CBr,ISOBUTYL BROMIDE,1-Bromo-2-methylpropane,1-bromo-2-methylpropane,19305,DTXSID1052539,CC(C)CBr,"InChI=1S/C4H9Br/c1-4(2)3-5/h4H,3H2,1-2H3",HLVFKOKELQSXIQ-UHFFFAOYSA-N,?,91.1,100224
100226,78-79-5,78-79-5,CC(=C)C=C,"2-METHYL-1,3-BUTADIENE",Isoprene,"2-methylbuta-1,3-diene",19307,DTXSID2020761,CC(=C)C=C,"InChI=1S/C5H8/c1-4-5(2)3/h4H,1-2H2,3H3",RRHGJUQNOFWUDK-UHFFFAOYSA-N,?,34.0,100226
100227,78-80-8,78-80-8,CC(=C)C#C,"1-BUTEN-3-YNE, 2-METHYL-","1-Buten-3-yne, 2-methyl-",2-Methylbut-1-en-3-yne,19308,DTXSID20228648,CC(=C)C#C,"InChI=1S/C5H6/c1-4-5(2)3/h1H,2H2,3H3",BOFLDKIFLIFLJA-UHFFFAOYSA-N,?,32.0,100227
100228,78-81-9,78-81-9,CC(C)CN,ISOBUTYLAMINE,Isobutylamine,2-methylpropan-1-amine,19309,DTXSID9025459,CC(C)CN,"InChI=1S/C4H11N/c1-4(2)3-5/h4H,3,5H2,1-2H3",KDSNLYIMUZNERS-UHFFFAOYSA-N,?,68.5,100228
100230,78-83-1,78-83-1,CC(C)CO,ISOBUTYL ALCOHOL,2-Methyl-1-propanol,2-methylpropan-1-ol,19311,DTXSID0021759,CC(C)CO,"InChI=1S/C4H10O/c1-4(2)3-5/h4-5H,3H2,1-2H3",ZXEKIIBDNHEJCQ-UHFFFAOYSA-N,?,107.8,100230
100231,78-84-2,78-84-2,CC(C)C=O,ISOBUTYRALDEHYDE,2-Methylpropanal,2-methylpropanal,19312,DTXSID9021635,CC(C)C=O,"InChI=1S/C4H8O/c1-4(2)3-5/h3-4H,1-2H3",AMIMRNSIRUDHCM-UHFFFAOYSA-N,?,64.5,100231
100232,78-85-3,78-85-3,CC(=C)C=O,METHACROLEIN,Methacrylaldehyde,methacrylaldehyde,19313,DTXSID0052540,CC(=C)C=O,"InChI=1S/C4H6O/c1-4(2)3-5/h3H,1H2,2H3",STNJBCKSHOAVAJ-UHFFFAOYSA-N,?,68.4,100232
100234,78-87-5,78-87-5,CC(Cl)CCl,"1,2-DICHLOROPROPANE","1,2-Dichloropropane","1,2-dichloropropane",19315,DTXSID0020448,CC(Cl)CCl,"InChI=1S/C3H6Cl2/c1-3(5)2-4/h3H,2H2,1H3",KNKRKFALVUDBJE-UHFFFAOYSA-N,?,95.5,100234
100235,78-88-6,78-88-6,C=C(Cl)CCl,"2,3-DICHLOROPROPENE","2,3-Dichloro-1-propene","2,3-dichloroprop-1-ene",19316,DTXSID6025012,C=C(Cl)CCl,InChI=1S/C3H4Cl2/c1-3(5)2-4/h1-2H2,FALCMQXTWHPRIH-UHFFFAOYSA-N,?,94.0,100235
100236,78-89-7,78-89-7,CC(Cl)CO,2-CHLORO-1-PROPANOL,2-Chloropropan-1-ol,2-chloropropan-1-ol,19317,DTXSID5052541,CC(Cl)CO,"InChI=1S/C3H7ClO/c1-3(4)2-5/h3,5H,2H2,1H3",VZIQXGLTRZLBEX-UHFFFAOYSA-N,?,133.5,100236
100238,78-91-1,NOCAS_865762,CC(N)CO,2-Aminopropanol,,,19319,DTXSID50865762,CC(N)CO,"InChI=1S/C3H9NO/c1-3(4)2-5/h3,5H,2,4H2,1H3",BKMMTJMQCTUHRP-UHFFFAOYSA-N,?,174.0,100238
100239,78-92-2,78-92-2,CCC(C)O,2-BUTANOL,2-Butanol,butan-2-ol,19320,DTXSID9021762,CCC(C)O,"InChI=1S/C4H10O/c1-3-4(2)5/h4-5H,3H2,1-2H3",BTANRVKWQNVYAZ-UHFFFAOYSA-N,?,99.5,100239
100240,78-93-3,78-93-3,CCC(C)=O,2-BUTANONE,Methyl ethyl ketone,butan-2-one,19321,DTXSID3021516,CCC(C)=O,"InChI=1S/C4H8O/c1-3-4(2)5/h3H2,1-2H3",ZWEHNKRNPOVVGH-UHFFFAOYSA-N,?,79.5,100240
100242,78-95-5,78-95-5,CC(=O)CCl,CHLOROACETONE,1-Chloropropan-2-one,1-chloropropan-2-one,19323,DTXSID0021547,CC(=O)CCl,"InChI=1S/C3H5ClO/c1-3(5)2-4/h2H2,1H3",BULLHNJGPPOUOX-UHFFFAOYSA-N,?,119.0,100242
100243,78-96-6,78-96-6,CC(O)CN,1-AMINO-2-PROPANOL,1-Amino-2-propanol,1-aminopropan-2-ol,19324,DTXSID9021764,CC(O)CN,"InChI=1S/C3H9NO/c1-3(5)2-4/h3,5H,2,4H2,1H3",HXKKHQJGJAFBHI-UHFFFAOYSA-N,?,160.0,100243
100244,78-97-7,78-97-7,CC(O)C#N,2-HYDROXYPROPANENITRILE,Lactonitrile,2-hydroxypropanenitrile,19325,DTXSID6025432,CC(O)C#N,"InChI=1S/C3H5NO/c1-3(5)2-4/h3,5H,1H3",WOFDVDFSGLBFAC-UHFFFAOYSA-N,?,183.0,100244
100246,78-99-9,78-99-9,CCC(Cl)Cl,"1,1-Dichloropropane","1,1-Dichloropropane","1,1-DICHLOROPROPANE",19327,DTXSID9058818,CCC(Cl)Cl,"InChI=1S/C3H6Cl2/c1-2-3(4)5/h3H,2H2,1H3",WIHMGGWNMISDNJ-UHFFFAOYSA-N,?,88.1,100246
100247,79-00-5,79-00-5,ClCC(Cl)Cl,"1,1,2-TRICHLOROETHANE","1,1,2-Trichloroethane","1,1,2-trichloroethane",19328,DTXSID5021380,ClCC(Cl)Cl,"InChI=1S/C2H3Cl3/c3-1-2(4)5/h2H,1H2",UBOXGVDOUJQMTN-UHFFFAOYSA-N,?,113.8,100247
100248,79-01-6,79-01-6,ClC=C(Cl)Cl,TRICHLOROETHENE,Trichloroethylene,"1,1,2-trichloroethene",19329,DTXSID0021383,ClC=C(Cl)Cl,InChI=1S/C2HCl3/c3-1-2(4)5/h1H,XSTXAVWGXDQKEL-UHFFFAOYSA-N,?,87.2,100248
100250,79-03-8,79-03-8,CCC(=O)Cl,Propanoyl chloride,Propanoyl chloride,Propanoyl chloride,19331,DTXSID4058819,CCC(=O)Cl,"InChI=1S/C3H5ClO/c1-2-3(4)5/h2H2,1H3",RZWZRACFZGVKFM-UHFFFAOYSA-N,?,80.0,100250
100251,79-04-9,79-04-9,O=C(Cl)CCl,CHLOROACETYLCHLORIDE,Chloroacetyl chloride,chloroacetyl chloride,19332,DTXSID4026472,O=C(Cl)CCl,InChI=1S/C2H2Cl2O/c3-1-2(4)5/h1H2,VGCXGMAHQTYDJK-UHFFFAOYSA-N,?,106.0,100251
100252,79-05-0,79-05-0,CCC(N)=O,PROPRIONAMIDE,Propanamide,Propanamide,19333,DTXSID3058820,CCC(N)=O,"InChI=1S/C3H7NO/c1-2-3(4)5/h2H2,1H3,(H2,4,5)",QLNJFJADRCOGBJ-UHFFFAOYSA-N,?,213.0,100252
100254,79-07-2,79-07-2,NC(=O)CCl,CHLOROACETAMIDE,Chloroacetamide,C2H4ClNO,19335,DTXSID9041570,NC(=O)CCl,"InChI=1S/C2H4ClNO/c3-1-2(4)5/h1H2,(H2,4,5)",VXIVSQZSERGHQP-UHFFFAOYSA-N,?,225.0,100254