ChemID,source_casrn,CAS,SMILES,NAME,preferred_name,iupac,MPID,dsstox_substance_id,Canonical_QSARr,InChI_Code_QSARr,InChI Key_QSARr,Salt_Solvent,Salt_Solvent_ID,MP,ID
100050,50-91-9,50-91-9,O[C@H]1C[C@@H](O[C@@H]1CO)N1C=C(F)C(=O)NC1=O,FLOXURIDINE,Floxuridine,2'-deoxy-5-fluorouridine,27466,DTXSID3023057,OC1CC(OC1CO)N1C=C(F)C(=O)NC1=O,"InChI=1S/C9H11FN2O5/c10-4-2-12(9(16)11-8(4)15)7-1-5(14)6(3-13)17-7/h2,5-7,13-14H,1,3H2,(H,11,15,16)",ODKNJVUHOIMIIZ-UHFFFAOYSA-N,?,,150.5,100050
100052,50-99-7|59-23-4|492-62-6,50-99-7|59-23-4|492-62-6,OC[C@H]1OC(O)[C@H](O)[C@@H](O)[C@@H]1O,"GLUCOSE, GALACTOSE, alpha-D-Glucose",D-Glucose,D-glucopyranose,27467|27623|30627,DTXSID7022910|DTXSID0023088|DTXSID30197710,OCC1OC(O)C(O)C(O)C1O,"InChI=1S/C6H12O6/c7-1-2-3(8)4(9)5(10)6(11)12-2/h2-11H,1H2",WQZGKKKJIJFFOK-UHFFFAOYSA-N,?,,133.0,100052
100054,51-05-8,51-05-8,Cl.CCN(CCOC(=O)c1ccc(N)cc1)CC,PROCAINE HYDROCHLORIDE,Procaine hydrochloride,2-(diethylamino)ethyl 4-aminobenzoate hydrochloride (1:1),27468,DTXSID1044435,CCN(CCOC(=O)c1ccc(N)cc1)CC,"InChI=1S/C13H20N2O2/c1-3-15(4-2)9-10-17-13(16)11-5-7-12(14)8-6-11/h5-8H,3-4,9-10,14H2,1-2H3",MFDFERRIHVXMIY-UHFFFAOYSA-N,Cl,18179,155.5,100054
100056,51-17-2,51-17-2,c1[nH]c2ccccc2[n]1,BENZIMIDAZOLE,Benzimidazole,1H-benzimidazole,27470,DTXSID8024573,c1[nH]c2ccccc2[n]1,"InChI=1S/C7H6N2/c1-2-4-7-6(3-1)8-5-9-7/h1-5H,(H,8,9)",HYZJCKYKOHLVJF-UHFFFAOYSA-N,?,,170.5,100056
100057,51-20-7,51-20-7,O=C1NC=C(Br)C(=O)N1,5-BROMOURACIL,5-Bromouracil,"5-bromo-1H-pyrimidine-2,4-dione",27471,DTXSID2058758,O=C1NC=C(Br)C(=O)N1,"InChI=1S/C4H3BrN2O2/c5-2-1-6-4(9)7-3(2)8/h1H,(H2,6,7,8,9)",LQLQRFGHAALLLE-UHFFFAOYSA-N,?,,310.0,100057
100058,51-21-8,51-21-8,O=C1NC=C(F)C(=O)N1,5-FLUOROURACIL,5-Fluorouracil,"5-fluoropyrimidine-2,4(1H,3H)-dione",27472,DTXSID2020634,O=C1NC=C(F)C(=O)N1,"InChI=1S/C4H3FN2O2/c5-2-1-6-4(9)7-3(2)8/h1H,(H2,6,7,8,9)",GHASVSINZRGABV-UHFFFAOYSA-N,?,,283.0,100058
100060,51-26-3,51-26-3,Oc1ccc(cc1I)Oc1c(I)cc(CCC(O)=O)cc1I,Thyropropic Acid,Thyropropic acid,"3-[4-(4-hydroxy-3-iodophenoxy)-3,5-diiodophenyl]propanoic acid",27474,DTXSID20198998,Oc1ccc(cc1I)Oc1c(I)cc(CCC(O)=O)cc1I,"InChI=1S/C15H11I3O4/c16-10-7-9(2-3-13(10)19)22-15-11(17)5-8(6-12(15)18)1-4-14(20)21/h2-3,5-7,19H,1,4H2,(H,20,21)",VRORTNGXAKZJML-UHFFFAOYSA-N,?,,200.0,100060
100061,51-28-5,51-28-5,[O-][N+](=O)c1cc(ccc1O)[N+]([O-])=O,"2,4-DINITROPHENOL","2,4-Dinitrophenol","2,4-dinitrophenol",27475,DTXSID0020523,[O-][N+](=O)c1cc(ccc1O)[N+]([O-])=O,"InChI=1S/C6H4N2O5/c9-6-2-1-4(7(10)11)3-5(6)8(12)13/h1-3,9H",UFBJCMHMOXMLKC-UHFFFAOYSA-N,?,,115.5,100061
100062,51-34-3,51-34-3,CN1[C@@H]2C[C@H](C[C@H]1[C@@H]1O[C@@H]12)OC(=O)[C@H](CO)c1ccccc1,SCOPOLAMINE,Scopolamine,"(1R,2R,4S,5S,7s)-9-methyl-3-oxa-9-azatricyclo[3.3.1.0~2,4~]non-7-yl (2S)-3-hydroxy-2-phenylpropanoate",27476,DTXSID6023573,CN1C2CC(CC1C1OC12)OC(=O)C(CO)c1ccccc1,"InChI=1S/C17H21NO4/c1-18-13-7-11(8-14(18)16-15(13)22-16)21-17(20)12(9-19)10-5-3-2-4-6-10/h2-6,11-16,19H,7-9H2,1H3",STECJAGHUSJQJN-UHFFFAOYSA-N,?,,59.0,100062
100065,51-42-3,51-42-3,CNC[C@H](O)c1cc(O)c(O)cc1.OC(=O)[C@H](O)[C@@H](O)C(O)=O,ADRENALINE TARTRATE (1:1),Epinephrine bitartrate,"(2R,3R)-2,3-dihydroxybutanedioic acid - 4-[(1R)-1-hydroxy-2-(methylamino)ethyl]benzene-1,2-diol (1:1)",27478,DTXSID3049415,CNCC(O)c1cc(O)c(O)cc1,"InChI=1S/C9H13NO3/c1-10-5-9(13)6-2-3-7(11)8(12)4-6/h2-4,9-13H,5H2,1H3",UCTWMZQNUQWSLP-UHFFFAOYSA-N,[C@@H]([C@H](C(O)=O)O)(C(O)=O)O,5,150.5,100065
100066,51-43-4|329-65-7,51-43-4,CNC[C@H](O)c1cc(O)c(O)cc1,"EPINEPHRINE, Racepinephrine",Epinephrine,"4-[(1R)-1-hydroxy-2-(methylamino)ethyl]benzene-1,2-diol",27479|30167,DTXSID5022986,CNCC(O)c1cc(O)c(O)cc1,"InChI=1S/C9H13NO3/c1-10-5-9(13)6-2-3-7(11)8(12)4-6/h2-4,9-13H,5H2,1H3",UCTWMZQNUQWSLP-UHFFFAOYSA-N,?,,211.5,100066
100067,51-45-6,51-45-6,NCCc1c[n]c[nH]1,1H-IMIDAZOLE-4-ETHANAMINE,Histamine,2-(1H-imidazol-5-yl)ethanamine,27480,DTXSID4023125,NCCc1c[n]c[nH]1,"InChI=1S/C5H9N3/c6-2-1-5-3-7-4-8-5/h3-4H,1-2,6H2,(H,7,8)",NTYJJOPFIAHURM-UHFFFAOYSA-N,?,,86.0,100067
100069,51-52-5,51-52-5,CCCC1=CC(=O)NC(=S)N1,Propylthiouracil,6-Propyl-2-thiouracil,"6-propyl-2-thioxo-2,3-dihydropyrimidin-4(1H)-one",27482,DTXSID5021209,CCCC1=CC(=O)NC(=S)N1,"InChI=1S/C7H10N2OS/c1-2-3-5-4-6(10)9-7(11)8-5/h4H,2-3H2,1H3,(H2,8,9,10,11)",KNAHARQHSZJURB-UHFFFAOYSA-N,?,,219.0,100069
100070,51-55-8|101-31-5,51-55-8,CN1[C@@H]2C[C@H](C[C@H]1CC2)OC(=O)C(CO)c1ccccc1,"ATROPINE, Hyoscyamine",Atropine,(3-endo)-8-methyl-8-azabicyclo[3.2.1]oct-3-yl 3-hydroxy-2-phenylpropanoate,27483|28838,DTXSID4020113,CN1C2CC(CC1CC2)OC(=O)C(CO)c1ccccc1,"InChI=1S/C17H23NO3/c1-18-13-7-8-14(18)10-15(9-13)21-17(20)16(11-19)12-5-3-2-4-6-12/h2-6,13-16,19H,7-11H2,1H3",RKUNBYITZUJHSG-UHFFFAOYSA-N,?,,113.5,100070
100071,51-57-0,51-57-0,Cl.CN[C@@H](C)Cc1ccccc1,Methamphetamine hydrochloride,S-(+)-Methamphetamine hydrochloride,(2S)-N-methyl-1-phenylpropan-2-amine hydrochloride (1:1),27484,DTXSID8048864,CNC(C)Cc1ccccc1,"InChI=1S/C10H15N/c1-9(11-2)8-10-6-4-3-5-7-10/h3-7,9,11H,8H2,1-2H3",MYWUZJCMWCOHBA-UHFFFAOYSA-N,Cl,18179,172.5,100071
100073,51-61-6,51-61-6,NCCc1cc(O)c(O)cc1,DOPAMINE,Dopamine,"4-(2-aminoethyl)benzene-1,2-diol",27486,DTXSID6022420,NCCc1cc(O)c(O)cc1,"InChI=1S/C8H11NO2/c9-4-3-6-1-2-7(10)8(11)5-6/h1-2,5,10-11H,3-4,9H2",VYFYYTLLBUKUHU-UHFFFAOYSA-N,?,,128.0,100073
100074,51-66-1,51-66-1,CC(=O)Nc1ccc(cc1)OC,P-METHOXYACETANILIDE,N-(4-Methoxyphenyl)acetamide,N-(4-methoxyphenyl)acetamide,27487,DTXSID6026325,CC(=O)Nc1ccc(cc1)OC,"InChI=1S/C9H11NO2/c1-7(11)10-8-3-5-9(12-2)6-4-8/h3-6H,1-2H3,(H,10,11)",XVAIDCNLVLTVFM-UHFFFAOYSA-N,?,,131.0,100074
100075,51-67-2,51-67-2,NCCc1ccc(O)cc1,4-(2-AMINOETHYL)PHENOL,Tyramine,4-(2-aminoethyl)phenol,27488,DTXSID2043874,NCCc1ccc(O)cc1,"InChI=1S/C8H11NO/c9-6-5-7-1-3-8(10)4-2-7/h1-4,10H,5-6,9H2",DZGWFCGJZKJUFP-UHFFFAOYSA-N,?,,164.5,100075
100077,51-79-6,51-79-6,CCOC(N)=O,O-ETHYL CARBAMATE (URETHANE),Urethane,ethyl carbamate,27490,DTXSID9021427,CCOC(N)=O,"InChI=1S/C3H7NO2/c1-2-6-3(4)5/h2H2,1H3,(H2,4,5)",JOYRKODLDBILNP-UHFFFAOYSA-N,?,,49.0,100077
100078,51-98-9,51-98-9,C[C@]12CC[C@@H]3[C@H]4CCC(=O)C=C4CC[C@H]3[C@@H]1CC[C@]2(C#C)OC(C)=O,Norethindrone acetate,Norethindrone acetate,(17beta)-17-ethynyl-3-oxoestr-4-en-17-yl acetate,27491,DTXSID4023381,CC12CCC3C4CCC(=O)C=C4CCC3C1CCC2(C#C)OC(C)=O,"InChI=1S/C22H28O3/c1-4-22(25-14(2)23)12-10-20-19-7-5-15-13-16(24)6-8-17(15)18(19)9-11-21(20,22)3/h1,13,17-20H,5-12H2,2-3H3",IMONTRJLAWHYGT-UHFFFAOYSA-N,?,,161.5,100078
100079,52-01-7,52-01-7,CC(=O)S[C@@H]1CC2=CC(=O)CC[C@]2(C)[C@H]2CC[C@@]3(C)[C@@H](CC[C@]43CCC(=O)O4)[C@@H]21,SPIRONOLACTONE,Spironolactone,"S-[(7R,8R,9S,10R,13S,14S,17R)-10,13-dimethyl-3,5'-dioxo-1,2,3,4',5',6,7,8,9,10,11,12,13,14,15,16-hexadecahydro-3'H-spiro[cyclopenta[a]phenanthrene-17,2'-furan]-7-yl] ethanethioate",27492,DTXSID6034186,CC(=O)SC1CC2=CC(=O)CCC2(C)C2CCC3(C)C(CCC43CCC(=O)O4)C21,"InChI=1S/C24H32O4S/c1-14(25)29-19-13-15-12-16(26)4-8-22(15,2)17-5-9-23(3)18(21(17)19)6-10-24(23)11-7-20(27)28-24/h12,17-19,21H,4-11,13H2,1-3H3",LXMSZDCAJNLERA-UHFFFAOYSA-N,?,,207.5,100079
100081,52-31-3,52-31-3,CCC1(C2CCCCC=2)C(=O)NC(=O)NC1=O,CYCLOBARBITAL,Cyclobarbital,"5-(cyclohex-1-en-1-yl)-5-ethylpyrimidine-2,4,6(1H,3H,5H)-trione",27494,DTXSID9022865,CCC1(C2CCCCC=2)C(=O)NC(=O)NC1=O,"InChI=1S/C12H16N2O3/c1-2-12(8-6-4-3-5-7-8)9(15)13-11(17)14-10(12)16/h6H,2-5,7H2,1H3,(H2,13,14,15,16,17)",WTYGAUXICFETTC-UHFFFAOYSA-N,?,,173.0,100081
100083,52-43-7,52-43-7,C=CCC1(CC=C)C(=O)NC(=O)NC1=O,ALLOBARBITAL,Allobarbital,"5,5-di(prop-2-en-1-yl)pyrimidine-2,4,6(1H,3H,5H)-trione",27495,DTXSID9022572,C=CCC1(CC=C)C(=O)NC(=O)NC1=O,"InChI=1S/C10H12N2O3/c1-3-5-10(6-4-2)7(13)11-9(15)12-8(10)14/h3-4H,1-2,5-6H2,(H2,11,12,13,14,15)",FDQGNLOWMMVRQL-UHFFFAOYSA-N,?,,172.0,100083
100084,52-46-0,52-46-0,C1CN1[p]1([n][p]([n][p]([n]1)(N1CC1)N1CC1)(N1CC1)N1CC1)N1CC1,Apholate,"1,3,5,2,4,6-Triazatriphosphorine, 2,2,4,4,6,6-hexakis(1-aziridinyl)-2,2,4,4,6,6-hexahydro-","2,2,4,4,6,6-hexakis(aziridin-1-yl)-1,3,5-triaza-2$l^{5},4$l^{5},6$l^{5}-triphosphacyclohexa-1,3,5-triene",27496,DTXSID7073149,C1CN1[p]1([n][p]([n][p]([n]1)(N1CC1)N1CC1)(N1CC1)N1CC1)N1CC1,"InChI=1S/C12H24N9P3/c1-2-16(1)22(17-3-4-17)13-23(18-5-6-18,19-7-8-19)15-24(14-22,20-9-10-20)21-11-12-21/h1-12H2",PXZAWHSJYIECNQ-UHFFFAOYSA-N,?,,147.5,100084
100087,52-67-5,52-67-5,CC(C)(S)[C@@H](N)C(O)=O,PENCILLAMINE,D-Penicillamine,3-sulfanyl-D-valine,27498,DTXSID6037069,CC(C)(S)C(N)C(O)=O,"InChI=1S/C5H11NO2S/c1-5(2,9)3(6)4(7)8/h3,9H,6H2,1-2H3,(H,7,8)",VVNCNSJFMMFHPL-UHFFFAOYSA-N,?,,198.5,100087
100088,52-68-6,52-68-6,COP(=O)(OC)C(O)C(Cl)(Cl)Cl,TRICHLORFON,Trichlorfon,"dimethyl (2,2,2-trichloro-1-hydroxyethyl)phosphonate",27499,DTXSID0021389,COP(=O)(OC)C(O)C(Cl)(Cl)Cl,"InChI=1S/C4H8Cl3O4P/c1-10-12(9,11-2)3(8)4(5,6)7/h3,8H,1-2H3",NFACJZMKEDPNKN-UHFFFAOYSA-N,?,,77.0,100088
100090,52-78-8,52-78-8,C[C@]12CC[C@@H]3[C@H]4CCC(=O)C=C4CC[C@H]3[C@@H]1CC[C@@]2(O)CC,Norethandrolone,Norethandrolone,(17beta)-17-ethyl-17-hydroxyestr-4-en-3-one,27500,DTXSID0023379,CC12CCC3C4CCC(=O)C=C4CCC3C1CCC2(O)CC,"InChI=1S/C20H30O2/c1-3-20(22)11-9-18-17-6-4-13-12-14(21)5-7-15(13)16(17)8-10-19(18,20)2/h12,15-18,22H,3-11H2,1-2H3",ZDHCJEIGTNNEMY-UHFFFAOYSA-N,?,,140.5,100090
100092,52-86-8,52-86-8,OC1(CCN(CCCC(=O)c2ccc(F)cc2)CC1)c1ccc(Cl)cc1,HALOPERIDOL,Haloperidol,4-[4-(4-chlorophenyl)-4-hydroxypiperidin-1-yl]-1-(4-fluorophenyl)butan-1-one,27502,DTXSID4034150,OC1(CCN(CCCC(=O)c2ccc(F)cc2)CC1)c1ccc(Cl)cc1,"InChI=1S/C21H23ClFNO2/c22-18-7-5-17(6-8-18)21(26)11-14-24(15-12-21)13-1-2-20(25)16-3-9-19(23)10-4-16/h3-10,26H,1-2,11-15H2",LNEPOXFFQSENCJ-UHFFFAOYSA-N,?,,151.5,100092
100094,53-05-4|516-45-0|547-77-3,53-05-4|516-45-0|547-77-3,C[C@]12CC(=O)[C@H]3[C@@H](CC[C@@H]4C[C@H](O)CC[C@@]43C)[C@@H]1CC[C@]2(O)C(=O)CO,"Tetrahydrocortisone, Allopregnane-3b,17a,21-triol-11,20-dione, Allotetrahydrocortisone",,,27503|30825|31116,DTXSID70878591|DTXSID10878590|DTXSID30878592,CC12CC(=O)C3C(CCC4CC(O)CCC43C)C1CCC2(O)C(=O)CO,"InChI=1S/C21H32O5/c1-19-7-5-13(23)9-12(19)3-4-14-15-6-8-21(26,17(25)11-22)20(15,2)10-16(24)18(14)19/h12-15,18,22-23,26H,3-11H2,1-2H3",SYGWGHVTLUBCEM-UHFFFAOYSA-N,?,,214.3333333333,100094
100095,53-06-5,53-06-5,C[C@]12CCC(=O)C=C1CC[C@@H]1[C@@H]2C(=O)C[C@@]2(C)[C@H]1CC[C@]2(O)C(=O)CO,CORTISONE,Cortisone,"17,21-dihydroxypregn-4-ene-3,11,20-trione",27504,DTXSID5022857,CC12CCC(=O)C=C1CCC1C2C(=O)CC2(C)C1CCC2(O)C(=O)CO,"InChI=1S/C21H28O5/c1-19-7-5-13(23)9-12(19)3-4-14-15-6-8-21(26,17(25)11-22)20(15,2)10-16(24)18(14)19/h9,14-15,18,22,26H,3-8,10-11H2,1-2H3",MFYSYFVPBJMHGN-UHFFFAOYSA-N,?,,222.0,100095
100097,53-19-0,53-19-0,ClC(Cl)C(c1ccccc1Cl)c1ccc(Cl)cc1,"O,P'-DDD","o,p'-DDD","1-chloro-2-[2,2-dichloro-1-(4-chlorophenyl)ethyl]benzene",27506,DTXSID9020372,ClC(Cl)C(c1ccccc1Cl)c1ccc(Cl)cc1,"InChI=1S/C14H10Cl4/c15-10-7-5-9(6-8-10)13(14(17)18)11-3-1-2-4-12(11)16/h1-8,13-14H",JWBOIMRXGHLCPP-UHFFFAOYSA-N,?,,77.0,100097
100098,53-34-9,53-34-9,C[C@]12C=CC(=O)C=C1[C@@H](F)C[C@@H]1[C@@H]2[C@@H](O)C[C@@]2(C)[C@H]1CC[C@]2(O)C(=O)CO,FLUPREDNISOLONE,Fluprednisolone,"(6alpha,11beta)-6-fluoro-11,17,21-trihydroxypregna-1,4-diene-3,20-dione",27507,DTXSID5046067,CC12C=CC(=O)C=C1C(F)CC1C2C(O)CC2(C)C1CCC2(O)C(=O)CO,"InChI=1S/C21H27FO5/c1-19-5-3-11(24)7-14(19)15(22)8-12-13-4-6-21(27,17(26)10-23)20(13,2)9-16(25)18(12)19/h3,5,7,12-13,15-16,18,23,25,27H,4,6,8-10H2,1-2H3",MYYIMZRZXIQBGI-UHFFFAOYSA-N,?,,210.5,100098
100099,53-36-1,53-36-1,CC(=O)OCC(=O)[C@@]1(O)CC[C@H]2[C@@H]3C[C@H](C)C4=CC(=O)C=C[C@]4(C)[C@H]3[C@@H](O)C[C@]12C,Methylprednisolone acetate [USAN:JAN],Methylprednisolone acetate,"(6alpha,11beta)-11,17-dihydroxy-6-methyl-3,20-dioxopregna-1,4-dien-21-yl acetate",27508,DTXSID7023302,CC(=O)OCC(=O)C1(O)CCC2C3CC(C)C4=CC(=O)C=CC4(C)C3C(O)CC12C,"InChI=1S/C24H32O6/c1-13-9-16-17-6-8-24(29,20(28)12-30-14(2)25)23(17,4)11-19(27)21(16)22(3)7-5-15(26)10-18(13)22/h5,7,10,13,16-17,19,21,27,29H,6,8-9,11-12H2,1-4H3",PLBHSZGDDKCEHR-UHFFFAOYSA-N,?,,206.5,100099
100101,53-41-8|481-29-8,53-41-8|571-31-3,C[C@]12CC[C@H]3[C@@H](CC[C@H]4C[C@H](O)CC[C@@]43C)[C@@H]1CCC2=O,"ANDROSTERONE, Epiandrosterone",Androsterone,"(3alpha,5alpha)-3-hydroxyandrostan-17-one",27510|30545,DTXSID3036525|DTXSID20289698,CC12CCC3C(CCC4CC(O)CCC43C)C1CCC2=O,"InChI=1S/C19H30O2/c1-18-9-7-13(20)11-12(18)3-4-14-15-5-6-17(21)19(15,2)10-8-16(14)18/h12-16,20H,3-11H2,1-2H3",QGXBDMJGAMFCBF-UHFFFAOYSA-N,?,,181.5,100101
100102,53-43-0,53-43-0,C[C@]12CC[C@H]3[C@@H](CC=C4C[C@@H](O)CC[C@@]43C)[C@@H]1CCC2=O,PRASTERONE,Dehydroepiandrosterone,(3beta)-3-hydroxyandrost-5-en-17-one,27511,DTXSID4020379,CC12CCC3C(CC=C4CC(O)CCC43C)C1CCC2=O,"InChI=1S/C19H28O2/c1-18-9-7-13(20)11-12(18)3-4-14-15-5-6-17(21)19(15,2)10-8-16(14)18/h3,13-16,20H,4-11H2,1-2H3",FMGSKLZLMKYGDP-UHFFFAOYSA-N,?,,140.5,100102
100103,53-46-3,53-46-3,[Br-].C[N+](CCOC(=O)C1c2ccccc2Oc2ccccc21)(CC)CC,Methantheline Bromide,Methantheline bromide,"N,N-diethyl-N-methyl-2-[(9H-xanthen-9-ylcarbonyl)oxy]ethanaminium bromide",27512,DTXSID7023277,C[N+](CCOC(=O)C1c2ccccc2Oc2ccccc21)(CC)CC,"InChI=1S/C21H26NO3/c1-4-22(3,5-2)14-15-24-21(23)20-16-10-6-8-12-18(16)25-19-13-9-7-11-17(19)20/h6-13,20H,4-5,14-15H2,1-3H3/q+1",GZHFODJQISUKAY-UHFFFAOYSA-N,[Br-],1731,174.5,100103
100105,53-79-2,53-79-2,CN(C)c1[n]c[n]c2c1[n]c[n]2[C@@H]1O[C@H](CO)[C@@H](NC(=O)[C@@H](N)Cc2ccc(cc2)OC)[C@H]1O,PUROMYCIN,Puromycin,"3'-deoxy-N,N-dimethyl-3'-[(O-methyl-L-tyrosyl)amino]adenosine",27514,DTXSID8036788,CN(C)c1[n]c[n]c2c1[n]c[n]2C1OC(CO)C(NC(=O)C(N)Cc2ccc(cc2)OC)C1O,"InChI=1S/C22H29N7O5/c1-28(2)19-17-20(25-10-24-19)29(11-26-17)22-18(31)16(15(9-30)34-22)27-21(32)14(23)8-12-4-6-13(33-3)7-5-12/h4-7,10-11,14-16,18,22,30-31H,8-9,23H2,1-3H3,(H,27,32)",RXWNCPJZOCPEPQ-UHFFFAOYSA-N,?,,176.25,100105
100106,53-86-1,53-86-1,Cc1c(CC(O)=O)c2cc(ccc2[n]1C(=O)c1ccc(Cl)cc1)OC,INDOMETHACIN,Indomethacin,[1-(4-chlorobenzoyl)-5-methoxy-2-methyl-1H-indol-3-yl]acetic acid,27515,DTXSID9020740,Cc1c(CC(O)=O)c2cc(ccc2[n]1C(=O)c1ccc(Cl)cc1)OC,"InChI=1S/C19H16ClNO4/c1-11-15(10-18(22)23)16-9-14(25-2)7-8-17(16)21(11)19(24)12-3-5-13(20)6-4-12/h3-9H,10H2,1-2H3,(H,22,23)",CGIGDMFJXJATDK-UHFFFAOYSA-N,?,,158.0,100106
100107,53-96-3,53-96-3,CC(=O)Nc1cc2Cc3ccccc3-c2cc1,N-2-FLUORENYLACETAMIDE,2-Acetylaminofluorene,N-(9H-fluoren-2-yl)acetamide,27516,DTXSID0039227,CC(=O)Nc1cc2Cc3ccccc3-c2cc1,"InChI=1S/C15H13NO/c1-10(17)16-13-6-7-15-12(9-13)8-11-4-2-3-5-14(11)15/h2-7,9H,8H2,1H3,(H,16,17)",CZIHNRWJTSTCEX-UHFFFAOYSA-N,?,,193.0,100107
100109,54-04-6,54-04-6,COc1c(cc(CCN)cc1OC)OC,MESCALINE,Mescaline,"2-(3,4,5-trimethoxyphenyl)ethanamine",27518,DTXSID80202303,COc1c(cc(CCN)cc1OC)OC,"InChI=1S/C11H17NO3/c1-13-9-6-8(4-5-12)7-10(14-2)11(9)15-3/h6-7H,4-5,12H2,1-3H3",RHCSKNNOAZULRK-UHFFFAOYSA-N,?,,35.5,100109
100110,54-11-5,54-11-5,CN1CCC[C@H]1c1c[n]ccc1,NICOTINE,Nicotine,C10H14N2,27519,DTXSID1020930,CN1CCCC1c1c[n]ccc1,"InChI=1S/C10H14N2/c1-12-7-3-5-10(12)9-4-2-6-11-8-9/h2,4,6,8,10H,3,5,7H2,1H3",SNICXCGAKADSCV-UHFFFAOYSA-N,?,,-79.0,100110
100111,54-20-6,54-20-6,O=C1NC=C(C(=O)N1)C(F)(F)F,TRIFLUOROMETHYLURACIL,Trifluorothymine,"5-(trifluoromethyl)-1H-pyrimidine-2,4-dione",27520,DTXSID40202304,O=C1NC=C(C(=O)N1)C(F)(F)F,"InChI=1S/C5H3F3N2O2/c6-5(7,8)2-1-9-4(12)10-3(2)11/h1H,(H2,9,10,11,12)",LMNPKIOZMGYQIU-UHFFFAOYSA-N,?,,316.0,100111
100114,54-32-0,54-32-0,Cc1cc(OCCN(C)C)c(cc1OC(C)=O)C(C)C,MOXISYLYTE,Moxisylyte,4-[2-(dimethylamino)ethoxy]-2-methyl-5-(propan-2-yl)phenyl acetate,27522,DTXSID4023339,Cc1cc(OCCN(C)C)c(cc1OC(C)=O)C(C)C,"InChI=1S/C16H25NO3/c1-11(2)14-10-15(20-13(4)18)12(3)9-16(14)19-8-7-17(5)6/h9-11H,7-8H2,1-6H3",VRYMTAVOXVTQEF-UHFFFAOYSA-N,?,,144.5,100114
100115,54-36-4,54-36-4,CC(C)(C(=O)c1c[n]ccc1)c1c[n]ccc1,Metyrapone,Metyrapone,"2-methyl-1,2-di(pyridin-3-yl)propan-1-one",27523,DTXSID1023314,CC(C)(C(=O)c1c[n]ccc1)c1c[n]ccc1,"InChI=1S/C14H14N2O/c1-14(2,12-6-4-8-16-10-12)13(17)11-5-3-7-15-9-11/h3-10H,1-2H3",FJLBFSROUSIWMA-UHFFFAOYSA-N,?,,50.5,100115
100117,54-47-7,54-47-7,Cc1[n]cc(COP(O)(O)=O)c(C=O)c1O,PYRIDOXAL-5-PHOSPHATE,Pyridoxal phosphate,(4-formyl-5-hydroxy-6-methylpyridin-3-yl)methyl dihydrogen phosphate,27525,DTXSID4048351,Cc1[n]cc(COP(O)(O)=O)c(C=O)c1O,"InChI=1S/C8H10NO6P/c1-5-8(11)7(3-10)6(2-9-5)4-15-16(12,13)14/h2-3,11H,4H2,1H3,(H2,12,13,14)",NGVDGCNFYWLIFO-UHFFFAOYSA-N,?,,255.0,100117
100118,54-49-9,54-49-9,C[C@H](N)[C@H](O)c1cc(O)ccc1,METARAMINOL,Metaraminol,"3-[(1R,2S)-2-amino-1-hydroxypropyl]phenol",27526,DTXSID8023268,CC(N)C(O)c1cc(O)ccc1,"InChI=1S/C9H13NO2/c1-6(10)9(12)7-3-2-4-8(11)5-7/h2-6,9,11-12H,10H2,1H3",WXFIGDLSSYIKKV-UHFFFAOYSA-N,?,,107.5,100118
100119,54-71-7,54-71-7,Cl.CC[C@H]1[C@H](COC1=O)Cc1c[n]c[n]1C,"PILOCARPINE, MONOHYDROCHLORIDE",Pilocarpine hydrochloride,"(3S,4R)-3-ethyl-4-[(1-methyl-1H-imidazol-5-yl)methyl]dihydrofuran-2(3H)-one hydrochloride (1:1)",27527,DTXSID2041096,CCC1C(COC1=O)Cc1c[n]c[n]1C,"InChI=1S/C11H16N2O2/c1-3-10-8(6-15-11(10)14)4-9-5-12-7-13(9)2/h5,7-8,10H,3-4,6H2,1-2H3",QCHFTSOMWOSFHM-UHFFFAOYSA-N,Cl,18179,204.5,100119
100121,54-85-3,54-85-3,NNC(=O)c1cc[n]cc1,ISONIAZID,Isoniazid,pyridine-4-carbohydrazide,27529,DTXSID8020755,NNC(=O)c1cc[n]cc1,"InChI=1S/C6H7N3O/c7-9-6(10)5-1-3-8-4-2-5/h1-4H,7H2,(H,9,10)",QRXWMOHMRWLFEY-UHFFFAOYSA-N,?,,171.4,100121
100122,54-88-6,54-88-6,Cc1cc(ccc1N=Nc1ccccc1)N(C)C,2-Methyl-4-dimethylaminoazobenzene,2-Methyl-4-(dimethylamino)azobenzene,"N,N,3-trimethyl-4-phenyldiazenylaniline",27530,DTXSID0074845,Cc1cc(ccc1N=Nc1ccccc1)N(C)C,"InChI=1S/C15H17N3/c1-12-11-14(18(2)3)9-10-15(12)17-16-13-7-5-4-6-8-13/h4-11H,1-3H3/b17-16+",QXTOLYZIJUDOIT-WUKNDPDISA-N,?,,68.0,100122
100123,54-95-5,54-95-5,C1CCCC[n]2[n][n][n]c21,PENTYLENETETRAZOLE,Pentylenetetrazol,"6,7,8,9-tetrahydro-5H-tetrazolo[1,5-a]azepine",27531,DTXSID7041091,C1CCCC[n]2[n][n][n]c21,InChI=1S/C6H10N4/c1-2-4-6-7-8-9-10(6)5-3-1/h1-5H2,CWRVKFFCRWGWCS-UHFFFAOYSA-N,?,,59.5,100123
100127,55-22-1,55-22-1,OC(=O)c1cc[n]cc1,ISONICOTINIC ACID,Isonicotinic acid,pyridine-4-carboxylic acid,27533,DTXSID8020757,OC(=O)c1cc[n]cc1,"InChI=1S/C6H5NO2/c8-6(9)5-1-3-7-4-2-5/h1-4H,(H,8,9)",TWBYWOBDOCUKOW-UHFFFAOYSA-N,?,,315.0,100127
100128,55-38-9,55-38-9,Cc1cc(ccc1SC)OP(=S)(OC)OC,FENTHION,Fenthion,"O,O-dimethyl O-[3-methyl-4-(methylsulfanyl)phenyl] phosphorothioate",27534,DTXSID8020620,Cc1cc(ccc1SC)OP(=S)(OC)OC,"InChI=1S/C10H15O3PS2/c1-8-7-9(5-6-10(8)16-4)13-14(15,11-2)12-3/h5-7H,1-4H3",PNVJTZOFSHSLTO-UHFFFAOYSA-N,?,,7.5,100128
100129,55-43-6,55-43-6,Cl.ClCCN(Cc1ccccc1)Cc1ccccc1,N-(2-Chloroethyl)dibenzylamine Hydrochloride,N-(2-Chloroethyl)dibenzylamine hydrochloride,,27535,DTXSID3075337,ClCCN(Cc1ccccc1)Cc1ccccc1,"InChI=1S/C16H18ClN/c17-11-12-18(13-15-7-3-1-4-8-15)14-16-9-5-2-6-10-16/h1-10H,11-14H2",GSLWSSUWNCJILM-UHFFFAOYSA-N,Cl,18179,192.0,100129
100131,55-63-0,55-63-0,[O-][N+](=O)OC(CO[N+]([O-])=O)CO[N+]([O-])=O,"1,2,3-PROPANETRIOL TRINITRATE",Trinitroglycerin,"propane-1,2,3-triyl trinitrate",27537,DTXSID1021407,[O-][N+](=O)OC(CO[N+]([O-])=O)CO[N+]([O-])=O,"InChI=1S/C3H5N3O9/c7-4(8)13-1-3(15-6(11)12)2-14-5(9)10/h3H,1-2H2",SNIOPGDIGTZGOP-UHFFFAOYSA-N,?,,13.5,100131
100133,55-73-2,55-73-2,CN/C(/NCc1ccccc1)=N\C,Bethanidine,Bethanidine,"1-benzyl-2,3-dimethylguanidine",27538,DTXSID7022677,CNC(NCc1ccccc1)=NC,"InChI=1S/C10H15N3/c1-11-10(12-2)13-8-9-6-4-3-5-7-9/h3-7H,8H2,1-2H3,(H2,11,12,13)",NIVZHWNOUVJHKV-UHFFFAOYSA-N,?,,196.0,100133
100134,55-80-1,NOCAS_858996,Cc1cc(ccc1)N=Nc1ccc(cc1)N(C)C,4-DIMETHYLAMINO-3'-METHYLAZOBENZENE,3'-Methyl-4-dimethylaminoazobenzene,"N,N-dimethyl-4-[(3-methylphenyl)diazenyl]aniline",27539,DTXSID90858996,Cc1cc(ccc1)N=Nc1ccc(cc1)N(C)C,"InChI=1S/C15H17N3/c1-12-5-4-6-14(11-12)17-16-13-7-9-15(10-8-13)18(2)3/h4-11H,1-3H3/b17-16+",LVTFSVIRYMXRSR-WUKNDPDISA-N,?,,138.5,100134
100136,55-91-4,55-91-4,CC(C)OP(=O)(F)OC(C)C,ISOFLUROPHATE,Diisopropyl fluorophosphate,dipropan-2-yl phosphorofluoridate,27541,DTXSID1040667,CC(C)OP(=O)(F)OC(C)C,"InChI=1S/C6H14FO3P/c1-5(2)9-11(7,8)10-6(3)4/h5-6H,1-4H3",MUCZHBLJLSDCSD-UHFFFAOYSA-N,?,,-82.0,100136
100137,55-94-7,55-94-7,[Br-].[Br-].C[N+](C)(C)CCOC(=O)CCC(=O)OCC[N+](C)(C)C,Succinylcholine Bromide,,,27542,DTXSID30877661,C[N+](C)(C)CCOC(=O)CCC(=O)OCC[N+](C)(C)C,"InChI=1S/C14H30N2O4/c1-15(2,3)9-11-19-13(17)7-8-14(18)20-12-10-16(4,5)6/h7-12H2,1-6H3/q+2",AXOIZCJOOAYSMI-UHFFFAOYSA-N,[Br-].[Br-],175,225.0,100137