ChemID,source_casrn,CAS,SMILES,NAME,preferred_name,iupac,MPID,dsstox_substance_id,Canonical_QSARr,InChI_Code_QSARr,InChI Key_QSARr,Salt_Solvent,Salt_Solvent_ID,MP,ID
101656,103-81-1,103-81-1,NC(=O)Cc1ccccc1,PHENYLACETAMIDE,Benzeneacetamide,2-Phenylacetamide,28929,DTXSID1059282,NC(=O)Cc1ccccc1,"InChI=1S/C8H9NO/c9-8(10)6-7-4-2-1-3-5-7/h1-5H,6H2,(H2,9,10)",LSBDFXRDZJMBSC-UHFFFAOYSA-N,?,,157.0,101656
101658,103-84-4,103-84-4,CC(=O)Nc1ccccc1,ACETANILIDE,Acetanilide,N-phenylacetamide,28931,DTXSID2022543,CC(=O)Nc1ccccc1,"InChI=1S/C8H9NO/c1-7(10)9-8-5-3-2-4-6-8/h2-6H,1H3,(H,9,10)",FZERHIULMFGESH-UHFFFAOYSA-N,?,,114.3,101658
101659,103-85-5,103-85-5,NC(=S)Nc1ccccc1,N-PHENYLTHIOUREA,1-Phenyl-2-thiourea,1-phenylthiourea,28932,DTXSID9021134,NC(=S)Nc1ccccc1,"InChI=1S/C7H8N2S/c8-7(10)9-6-4-2-1-3-5-6/h1-5H,(H3,8,9,10)",FULZLIGZKMKICU-UHFFFAOYSA-N,?,,154.0,101659
101660,103-86-6,103-86-6,CC(N)Cc1ccc(O)cc1,p-Hydroxyamphetamine,Hydroxyamphetamide,4-(2-aminopropyl)phenol,28933,DTXSID3023134,CC(N)Cc1ccc(O)cc1,"InChI=1S/C9H13NO/c1-7(10)6-8-2-4-9(11)5-3-8/h2-5,7,11H,6,10H2,1H3",GIKNHHRFLCDOEU-UHFFFAOYSA-N,?,,125.5,101660
101662,103-89-9,103-89-9,Cc1ccc(cc1)NC(C)=O,4-METHYLACETANILIDE,N-Acetyl-p-toluidine,N-(4-methylphenyl)acetamide,28935,DTXSID6024414,Cc1ccc(cc1)NC(C)=O,"InChI=1S/C9H11NO/c1-7-3-5-9(6-4-7)10-8(2)11/h3-6H,1-2H3,(H,10,11)",YICAMJWHIUMFDI-UHFFFAOYSA-N,?,,152.0,101662
101663,103-90-2,103-90-2,CC(=O)Nc1ccc(O)cc1,"ACETAMIDE, N-(4-HYDROXYPHENYL)",Acetaminophen,N-(4-hydroxyphenyl)acetamide,28936,DTXSID2020006,CC(=O)Nc1ccc(O)cc1,"InChI=1S/C8H9NO2/c1-6(10)9-7-2-4-8(11)5-3-7/h2-5,11H,1H3,(H,9,10)",RZVAJINKPMORJF-UHFFFAOYSA-N,?,,170.0,101663
101664,103-97-9,103-97-9,CCOc1ccc(cc1)NC(=O)CN,Phenocoll,Phenocoll,2-amino-N-(4-ethoxyphenyl)acetamide,28937,DTXSID30145610,CCOc1ccc(cc1)NC(=O)CN,"InChI=1S/C10H14N2O2/c1-2-14-9-5-3-8(4-6-9)12-10(13)7-11/h3-6H,2,7,11H2,1H3,(H,12,13)",LQJARUQXWJSDFL-UHFFFAOYSA-N,?,,100.5,101664
101666,104-01-8,104-01-8,COc1ccc(CC(O)=O)cc1,P-METHOXYPHENYLACETIC ACID,"Benzeneacetic acid, 4-methoxy-",2-(4-methoxyphenyl)acetic acid,28939,DTXSID1059288,COc1ccc(CC(O)=O)cc1,"InChI=1S/C9H10O3/c1-12-8-4-2-7(3-5-8)6-9(10)11/h2-5H,6H2,1H3,(H,10,11)",NRPFNQUDKRYCNX-UHFFFAOYSA-N,?,,87.0,101666
101667,104-03-0,104-03-0,[O-][N+](=O)c1ccc(CC(O)=O)cc1,P-NITROPHENYLACETIC ACID,4-Nitrophenylacetic acid,2-(4-NITROPHENYL)ACETIC ACID,28940,DTXSID6059289,[O-][N+](=O)c1ccc(CC(O)=O)cc1,"InChI=1S/C8H7NO4/c10-8(11)5-6-1-3-7(4-2-6)9(12)13/h1-4H,5H2,(H,10,11)",YBADLXQNJCMBKR-UHFFFAOYSA-N,?,,154.0,101667
101668,104-04-1,104-04-1,CC(=O)Nc1ccc(cc1)[N+]([O-])=O,4-NITROACETANILIDE,"Acetamide, N-(4-nitrophenyl)-",N-(4-Nitrophenyl)acetamide,28941,DTXSID5059290,CC(=O)Nc1ccc(cc1)[N+]([O-])=O,"InChI=1S/C8H8N2O3/c1-6(11)9-7-2-4-8(5-3-7)10(12)13/h2-5H,1H3,(H,9,11)",NQRLPDFELNCFHW-UHFFFAOYSA-N,?,,216.0,101668
101670,104-09-6,104-09-6,Cc1ccc(CC=O)cc1,"Benzeneacetaldehyde, 4-methyl-",(4-Methylphenyl)acetaldehyde,(4-methylphenyl)acetaldehyde,28943,DTXSID0051524,Cc1ccc(CC=O)cc1,"InChI=1S/C9H10O/c1-8-2-4-9(5-3-8)6-7-10/h2-5,7H,6H2,1H3",CIXAYNMKFFQEFU-UHFFFAOYSA-N,?,,40.0,101670
101672,104-12-1,104-12-1,O=C=Nc1ccc(Cl)cc1,1-CHLORO-4-ISOCYANATOBENZENE,4-Chlorophenyl isocyanate,1-chloro-4-isocyanatobenzene,28944,DTXSID7040732,O=C=Nc1ccc(Cl)cc1,InChI=1S/C7H4ClNO/c8-6-1-3-7(4-2-6)9-5-10/h1-4H,ADAKRBAJFHTIEW-UHFFFAOYSA-N,?,,30.0,101672
101673,104-15-4,104-15-4,Cc1ccc(cc1)S(O)(=O)=O,P-TOLUENESULFONIC ACID,4-Methylbenzenesulfonic acid,C7H8O3S,28945,DTXSID0026701,Cc1ccc(cc1)S(O)(=O)=O,"InChI=1S/C7H8O3S/c1-6-2-4-7(5-3-6)11(8,9)10/h2-5H,1H3,(H,8,9,10)",JOXIMZWYDAKGHI-UHFFFAOYSA-N,?,,104.5,101673
101675,104-21-2,104-21-2,CC(=O)OCc1ccc(cc1)OC,"Benzenemethanol, 4-methoxy-, acetate",4-Methoxybenzyl acetate,C10H12O3,28947,DTXSID1044770,CC(=O)OCc1ccc(cc1)OC,"InChI=1S/C10H12O3/c1-8(11)13-7-9-3-5-10(12-2)6-4-9/h3-6H,7H2,1-2H3",HFNGYHHRRMSKEU-UHFFFAOYSA-N,?,,84.0,101675
101676,104-22-3,104-22-3,Nc1ccc(cc1)S(=O)(=O)NCc1ccccc1,"Benzenesulfonamide, 4-[(phenylmethyl)amino]-",Benzylsulfamide,4-amino-N-benzylbenzenesulfonamide,28948,DTXSID3046110,Nc1ccc(cc1)S(=O)(=O)NCc1ccccc1,"InChI=1S/C13H14N2O2S/c14-12-6-8-13(9-7-12)18(16,17)15-10-11-4-2-1-3-5-11/h1-9,15H,10,14H2",ZHKXBELKPQXYEH-UHFFFAOYSA-N,?,,171.0,101676
101677,104-28-9,104-28-9,COc1ccc(C=CC(=O)OCCOCC)cc1,"2-Propenoic acid, 3-(4-methoxyphenyl)-, 2-ethoxy",Cinoxate,2-ethoxyethyl 3-(4-methoxyphenyl)prop-2-enoate,28949,DTXSID2025264,COc1ccc(C=CC(=O)OCCOCC)cc1,"InChI=1S/C14H18O4/c1-3-17-10-11-18-14(15)9-6-12-4-7-13(16-2)8-5-12/h4-9H,3,10-11H2,1-2H3/b9-6+",CMDKPGRTAQVGFQ-RMKNXTFCSA-N,?,,-25.0,101677
101679,104-36-9,104-36-9,CCCCOc1ccc(cc1)OCCCC,"Benzene, 1,4-dibutoxy-","Benzene, 1,4-dibutoxy-","1,4-Dibutoxybenzene",28951,DTXSID0059295,CCCCOc1ccc(cc1)OCCCC,"InChI=1S/C14H22O2/c1-3-5-11-15-13-7-9-14(10-8-13)16-12-6-4-2/h7-10H,3-6,11-12H2,1-2H3",ZROGCHDPRZRKTI-UHFFFAOYSA-N,?,,45.5,101679
101680,104-40-5,104-40-5,CCCCCCCCCc1ccc(O)cc1,P-NONYLPHENOL,4-Nonylphenol,4-nonylphenol,28952,DTXSID5033836,CCCCCCCCCc1ccc(O)cc1,"InChI=1S/C15H24O/c1-2-3-4-5-6-7-8-9-14-10-12-15(16)13-11-14/h10-13,16H,2-9H2,1H3",IGFHQQFPSIBGKE-UHFFFAOYSA-N,?,,42.0,101680
101681,104-42-7,104-42-7,CCCCCCCCCCCCc1ccc(N)cc1,P-DODECYLANILINE,4-Dodecylaniline,4-dodecylaniline,28953,DTXSID8021858,CCCCCCCCCCCCc1ccc(N)cc1,"InChI=1S/C18H31N/c1-2-3-4-5-6-7-8-9-10-11-12-17-13-15-18(19)16-14-17/h13-16H,2-12,19H2,1H3",KLPPPIIIEMUEGP-UHFFFAOYSA-N,?,,40.5,101681
101683,104-49-4,104-49-4,O=C=Nc1ccc(cc1)N=C=O,"Benzene, 1,4-diisocyanato-","1,4-Diisocyanatobenzene","1,4-diisocyanatobenzene",28955,DTXSID3025883,O=C=Nc1ccc(cc1)N=C=O,InChI=1S/C8H4N2O2/c11-5-9-7-1-2-8(4-3-7)10-6-12/h1-4H,ALQLPWJFHRMHIU-UHFFFAOYSA-N,?,,97.5,101683
101684,104-51-8,104-51-8,CCCCc1ccccc1,N-BUTYLBENZENE,Butylbenzene,butylbenzene,28956,DTXSID6022472,CCCCc1ccccc1,"InChI=1S/C10H14/c1-2-3-7-10-8-5-4-6-9-10/h4-6,8-9H,2-3,7H2,1H3",OCKPCBLVNKHBMX-UHFFFAOYSA-N,?,,-87.9,101684
101687,104-55-2|14371-10-9,104-55-2|14371-10-9,O=CC=Cc1ccccc1,"3-PHENYL-2-PROPENAL, trans-Cinnamaldehyde",3-Phenylprop-2-enal,C9H8O,28958|34903,DTXSID1024835|DTXSID6024834,O=CC=Cc1ccccc1,InChI=1S/C9H8O/c10-8-4-7-9-5-2-1-3-6-9/h1-8H/b7-4+,KJPRLNWUNMBNBZ-QPJJXVBHSA-N,?,,-7.5,101687
101689,104-65-4,NOCAS_861714,O=COCC=Cc1ccccc1,"2-Propen-1-ol, 3-phenyl-, formate",,,28959,DTXSID00861714,O=COCC=Cc1ccccc1,"InChI=1S/C10H10O2/c11-9-12-8-4-7-10-5-2-1-3-6-10/h1-7,9H,8H2/b7-4+",LBHJXKYRYCUGPD-QPJJXVBHSA-N,?,,0.0,101689
101690,104-66-5,104-66-5,C(COc1ccccc1)Oc1ccccc1,"1,2-DIPHENOXYETHANE","1,2-Diphenoxyethane","1,1'-[ethane-1,2-diylbis(oxy)]dibenzene",28960,DTXSID5026706,C(COc1ccccc1)Oc1ccccc1,"InChI=1S/C14H14O2/c1-3-7-13(8-4-1)15-11-12-16-14-9-5-2-6-10-14/h1-10H,11-12H2",XCSGHNKDXGYELG-UHFFFAOYSA-N,?,,98.0,101690
101692,104-75-6,104-75-6,CCCCC(CN)CC,2-ETHYLHEXYLAMINE,2-Ethylhexylamine,2-ethylhexan-1-amine,28962,DTXSID4025298,CCCCC(CN)CC,"InChI=1S/C8H19N/c1-3-5-6-8(4-2)7-9/h8H,3-7,9H2,1-2H3",LTHNHFOGQMKPOV-UHFFFAOYSA-N,?,,-76.0,101692
101693,104-76-7,104-76-7,CCCCC(CO)CC,2-ETHYL-1-HEXANOL,2-Ethyl-1-hexanol,2-ethylhexan-1-ol,28963,DTXSID5020605,CCCCC(CO)CC,"InChI=1S/C8H18O/c1-3-5-6-8(4-2)7-9/h8-9H,3-7H2,1-2H3",YIWUKEYIRIRTPP-UHFFFAOYSA-N,?,,-70.0,101693
101694,104-81-4,104-81-4,Cc1ccc(CBr)cc1,"Benzene, 1-(bromomethyl)-4-methyl-","Benzene, 1-(bromomethyl)-4-methyl-",1-(Bromomethyl)-4-methylbenzene,28964,DTXSID7059305,Cc1ccc(CBr)cc1,"InChI=1S/C8H9Br/c1-7-2-4-8(6-9)5-3-7/h2-5H,6H2,1H3",WZRKSPFYXUXINF-UHFFFAOYSA-N,?,,35.0,101694
101696,104-84-7,104-84-7,Cc1ccc(CN)cc1,"BENZENEMETHANAMINE, 4-METHYL-","Benzenemethanamine, 4-methyl-",(4-methylphenyl)methanamine,28966,DTXSID2059306,Cc1ccc(CN)cc1,"InChI=1S/C8H11N/c1-7-2-4-8(6-9)5-3-7/h2-5H,6,9H2,1H3",HMTSWYPNXFHGEP-UHFFFAOYSA-N,?,,12.5,101696
101697,104-85-8,104-85-8,Cc1ccc(cc1)C#N,4-METHYLBENZONITRILE,4-Methylbenzonitrile,4-methylbenzonitrile,28967,DTXSID6026169,Cc1ccc(cc1)C#N,"InChI=1S/C8H7N/c1-7-2-4-8(6-9)5-3-7/h2-5H,1H3",VCZNNAKNUVJVGX-UHFFFAOYSA-N,?,,29.5,101697
101698,104-87-0,104-87-0,Cc1ccc(C=O)cc1,P-TOLUALDEHYDE,4-Methylbenzaldehyde,4-methylbenzaldehyde,28968,DTXSID9041520,Cc1ccc(C=O)cc1,"InChI=1S/C8H8O/c1-7-2-4-8(6-9)5-3-7/h2-6H,1H3",FXLOVSHXALFLKQ-UHFFFAOYSA-N,?,,-6.0,101698
101700,104-90-5,104-90-5,Cc1ccc(CC)c[n]1,5-ETHYL-2-METHYLPYRIDINE,5-Ethyl-2-methylpyridine,5-ethyl-2-methylpyridine,28970,DTXSID7021861,Cc1ccc(CC)c[n]1,"InChI=1S/C8H11N/c1-3-8-5-4-7(2)9-6-8/h4-6H,3H2,1-2H3",NTSLROIKFLNUIJ-UHFFFAOYSA-N,?,,-70.9,101700
101701,104-92-7,104-92-7,COc1ccc(Br)cc1,4-BROMOANISOLE,"Benzene, 1-bromo-4-methoxy-",1-Bromo-4-methoxybenzene,28971,DTXSID2059308,COc1ccc(Br)cc1,"InChI=1S/C7H7BrO/c1-9-7-4-2-6(8)3-5-7/h2-5H,1H3",QJPJQTDYNZXKQF-UHFFFAOYSA-N,?,,13.5,101701
101702,104-93-8,104-93-8,Cc1ccc(cc1)OC,P-METHYLANISOLE,1-Methoxy-4-methylbenzene,1-methoxy-4-methylbenzene,28972,DTXSID9026710,Cc1ccc(cc1)OC,"InChI=1S/C8H10O/c1-7-3-5-8(9-2)6-4-7/h3-6H,1-2H3",CHLICZRVGGXEOD-UHFFFAOYSA-N,?,,-32.0,101702
101704,104-98-3,104-98-3,OC(=O)/C=C/c1c[nH]c[n]1,"2-Propenoic acid, 3-(1H-imidazol-4-yl)-",Urocanic acid,(2E)-3-(1H-imidazol-4-yl)prop-2-enoic acid,28974,DTXSID5041148,OC(=O)C=Cc1c[nH]c[n]1,"InChI=1S/C6H6N2O2/c9-6(10)2-1-5-3-7-4-8-5/h1-4H,(H,7,8)(H,9,10)/b2-1+",LOIYMIARKYCTBW-OWOJBTEDSA-N,?,,225.0,101704
101705,105-03-3,105-03-3,CCC(COC(=O)CCCCCCCC(=O)OCC(CC)CC)CC,Nonanedioic acid bis-(2-ethyl-butyl) ester,Bis(2-ethylbutyl) azelate,bis(2-ethylbutyl) nonanedioate,28975,DTXSID70146904,CCC(COC(=O)CCCCCCCC(=O)OCC(CC)CC)CC,"InChI=1S/C21H40O4/c1-5-18(6-2)16-24-20(22)14-12-10-9-11-13-15-21(23)25-17-19(7-3)8-4/h18-19H,5-17H2,1-4H3",HFEFYTCEBRSONX-UHFFFAOYSA-N,?,,-45.0,101705
101706,105-05-5,105-05-5,CCc1ccc(CC)cc1,P-DIETHYLBENZENE,"1,4-Diethylbenzene","1,4-diethylbenzene",28976,DTXSID4026711,CCc1ccc(CC)cc1,"InChI=1S/C10H14/c1-3-9-5-7-10(4-2)8-6-9/h5-8H,3-4H2,1-2H3",DSNHSQKRULAAEI-UHFFFAOYSA-N,?,,-42.83,101706
101708,105-07-7,105-07-7,N#Cc1ccc(C=O)cc1,"Benzonitrile, 4-formyl-","Benzonitrile, 4-formyl-",4-Formylbenzonitrile,28978,DTXSID6059312,N#Cc1ccc(C=O)cc1,"InChI=1S/C8H5NO/c9-5-7-1-3-8(6-10)4-2-7/h1-4,6H",WZWIQYMTQZCSKI-UHFFFAOYSA-N,?,,100.5,101708
101709,105-08-8,105-08-8,OCC1CCC(CC1)CO,"1,4-Cyclohexanedimethanol","1,4-Cyclohexanedimethanol","cyclohexane-1,4-diyldimethanol",28979,DTXSID9026712,OCC1CCC(CC1)CO,"InChI=1S/C8H16O2/c9-5-7-1-2-8(6-10)4-3-7/h7-10H,1-6H2",YIMQCDZDWXUDCA-UHFFFAOYSA-N,?,,51.0,101709
101710,105-13-5,105-13-5,COc1ccc(CO)cc1,P-METHOXYBENZYL ALCOHOL,(4-Methoxyphenyl)methanol,(4-methoxyphenyl)methanol,28980,DTXSID6044357,COc1ccc(CO)cc1,"InChI=1S/C8H10O2/c1-10-8-4-2-7(6-9)3-5-8/h2-5,9H,6H2,1H3",MSHFRERJPWKJFX-UHFFFAOYSA-N,?,,25.0,101710
101712,105-34-0,105-34-0,COC(=O)CC#N,METHYL CYANOACETATE,Methyl cyanoacetate,methyl cyanoacetate,28982,DTXSID8033649,COC(=O)CC#N,"InChI=1S/C4H5NO2/c1-7-4(6)2-3-5/h2H2,1H3",ANGDWNBGPBMQHW-UHFFFAOYSA-N,?,,-22.5,101712
101713,105-37-3,105-37-3,CCC(=O)OCC,ETHYL PROPIONATE,Ethyl propionate,ethyl propanoate,28983,DTXSID1040110,CCC(=O)OCC,"InChI=1S/C5H10O2/c1-3-5(6)7-4-2/h3-4H2,1-2H3",FKRCODPIKNYEAC-UHFFFAOYSA-N,?,,-73.9,101713
101714,105-38-4,105-38-4,CCC(=O)OC=C,VINYL PROPIONATE,Vinyl propionate,vinyl propionate,28984,DTXSID9051537,CCC(=O)OC=C,"InChI=1S/C5H8O2/c1-3-5(6)7-4-2/h4H,2-3H2,1H3",UIWXSTHGICQLQT-UHFFFAOYSA-N,?,,-80.0,101714
101717,105-46-4,105-46-4,CCC(C)OC(C)=O,S-BUTYLACETATE,Butan-2-yl acetate,butan-2-yl acetate,28986,DTXSID0047612,CCC(C)OC(C)=O,"InChI=1S/C6H12O2/c1-4-5(2)8-6(3)7/h5H,4H2,1-3H3",DCKVNWZUADLDEH-UHFFFAOYSA-N,?,,-98.9,101717
101718,105-53-3,105-53-3,CCOC(=O)CC(=O)OCC,DIETHYL MALONATE,Diethyl propanedioate,diethyl propanedioate,28987,DTXSID7021863,CCOC(=O)CC(=O)OCC,"InChI=1S/C7H12O4/c1-3-10-6(8)5-7(9)11-4-2/h3-5H2,1-2H3",IYXGSMUGOJNHAZ-UHFFFAOYSA-N,?,,-50.0,101718
101720,105-55-5,105-55-5,CCNC(=S)NCC,"N,N-DIETHYLTHIOUREA","N,N'-Diethylthiourea","1,3-diethylthiourea",28989,DTXSID8020466,CCNC(=S)NCC,"InChI=1S/C5H12N2S/c1-3-6-5(8)7-4-2/h3-4H2,1-2H3,(H2,6,7,8)",FLVIGYVXZHLUHP-UHFFFAOYSA-N,?,,78.0,101720
101721,105-56-6,105-56-6,CCOC(=O)CC#N,ETHYL CYANOACETATE,Ethyl cyanoacetate,ethyl cyanoacetate,28990,DTXSID9026718,CCOC(=O)CC#N,"InChI=1S/C5H7NO2/c1-2-8-5(7)3-4-6/h2-3H2,1H3",ZIUSEGSNTOUIPT-UHFFFAOYSA-N,?,,-22.5,101721
101722,105-57-7,105-57-7,CC(OCC)OCC,"1,1-DIETHOXYETHANE",Acetal,"1,1-diethoxyethane",28991,DTXSID6030607,CC(OCC)OCC,"InChI=1S/C6H14O2/c1-4-7-6(3)8-5-2/h6H,4-5H2,1-3H3",DHKHKXVYLBGOIT-UHFFFAOYSA-N,?,,-100.0,101722
101724,105-59-9,105-59-9,CN(CCO)CCO,N-METHYLDIETHANOLAMINE,N-Methyldiethanolamine,"2,2'-(methylimino)diethanol",28993,DTXSID8025591,CN(CCO)CCO,"InChI=1S/C5H13NO2/c1-6(2-4-7)3-5-8/h7-8H,2-5H2,1H3",CRVGTESFCCXCTH-UHFFFAOYSA-N,?,,-21.0,101724
101725,105-60-2,105-60-2,O=C1CCCCCN1,CAPROLACTAM,Caprolactam,azepan-2-one,28994,DTXSID4020240,O=C1CCCCCN1,"InChI=1S/C6H11NO/c8-6-4-2-1-3-5-7-6/h1-5H2,(H,7,8)",JBKVHLHDHHXQEQ-UHFFFAOYSA-N,?,,69.3,101725
101726,105-64-6,105-64-6,CC(C)OC(=O)OOC(=O)OC(C)C,DIISOPROPYL PEROXY DICARBONATE,"Peroxydicarbonic acid, bis(1-methylethyl) ester","2,2'-[dioxybis(carbonyloxy)]dipropane",28995,DTXSID3026722,CC(C)OC(=O)OOC(=O)OC(C)C,"InChI=1S/C8H14O6/c1-5(2)11-7(9)13-14-8(10)12-6(3)4/h5-6H,1-4H3",BWJUFXUULUEGMA-UHFFFAOYSA-N,?,,10.0,101726
101729,105-67-9,105-67-9,Cc1cc(C)c(O)cc1,"2,4-DIMETHYLPHENOL","2,4-Dimethylphenol","2,4-dimethylphenol",28997,DTXSID2021864,Cc1cc(C)c(O)cc1,"InChI=1S/C8H10O/c1-6-3-4-8(9)7(2)5-6/h3-5,9H,1-2H3",KUFFULVDNCHOFZ-UHFFFAOYSA-N,?,,24.5,101729
101731,105-74-8,105-74-8,CCCCCCCCCCCC(=O)OOC(=O)CCCCCCCCCCC,"Peroxide, bis(1-oxododecyl)","Peroxide, bis(1-oxododecyl)",dodecanoyl dodecaneperoxoate,28998,DTXSID1059319,CCCCCCCCCCCC(=O)OOC(=O)CCCCCCCCCCC,"InChI=1S/C24H46O4/c1-3-5-7-9-11-13-15-17-19-21-23(25)27-28-24(26)22-20-18-16-14-12-10-8-6-4-2/h3-22H2,1-2H3",YIVJZNGAASQVEM-UHFFFAOYSA-N,?,,49.0,101731
101732,105-76-0,105-76-0,CCCCOC(=O)/C=C\C(=O)OCCCC,DIBUTYL MALEATE,Dibutyl maleate,dibutyl (2Z)-but-2-enedioate,28999,DTXSID3026724,CCCCOC(=O)C=CC(=O)OCCCC,"InChI=1S/C12H20O4/c1-3-5-9-15-11(13)7-8-12(14)16-10-6-4-2/h7-8H,3-6,9-10H2,1-2H3/b8-7+",JBSLOWBPDRZSMB-BQYQJAHWSA-N,?,,-85.0,101732
101734,,105-92-0,CC(C)=CCC/C(/C)=C/C=C/C(/C)=C/C=C/C(/C)=C/C=C/C=C(\C)/C=C/C=C(\C)/C=C/C=C(\C)/CCCC(C)(C)O,Rhodopin,,,29001,,CC(C)=CCCC(C)=CC=CC(C)=CC=CC(C)=CC=CC=C(C)C=CC=C(C)C=CC=C(C)CCCC(C)(C)O,"InChI=1S/C40H58O/c1-33(2)19-13-22-36(5)25-16-28-37(6)26-14-23-34(3)20-11-12-21-35(4)24-15-27-38(7)29-17-30-39(8)31-18-32-40(9,10)41/h11-12,14-17,19-21,23-30,41H,13,18,22,31-32H2,1-10H3/b12-11+,23-14+,24-15+,28-16+,29-17+,34-20+,35-21+,36-25+,37-26+,38-27+,39-30+",CNYVJTJLUKKCGM-RGGGOQHISA-N,?,,171.0,101734
101735,105-99-7,105-99-7,CCCCOC(=O)CCCCC(=O)OCCCC,"Hexanedioic acid, dibutyl ester",Dibutyl hexanedioate,dibutyl hexanedioate,29002,DTXSID2021866,CCCCOC(=O)CCCCC(=O)OCCCC,"InChI=1S/C14H26O4/c1-3-5-11-17-13(15)9-7-8-10-14(16)18-12-6-4-2/h3-12H2,1-2H3",XTJFFFGAUHQWII-UHFFFAOYSA-N,?,,-32.4,101735
101736,106-02-5,106-02-5,O=C1CCCCCCCCCCCCCCO1,Exaltolide,Pentadecan-15-olide,oxacyclohexadecan-2-one,29003,DTXSID6044359,O=C1CCCCCCCCCCCCCCO1,InChI=1S/C15H28O2/c16-15-13-11-9-7-5-3-1-2-4-6-8-10-12-14-17-15/h1-14H2,FKUPPRZPSYCDRS-UHFFFAOYSA-N,?,,32.0,101736
101738,106-19-4,106-19-4,CCCOC(=O)CCCCC(=O)OCCC,"Hexanedioic acid, dipropyl ester",Dipropyl hexanedioate,dipropyl hexanedioate,29005,DTXSID6044511,CCCOC(=O)CCCCC(=O)OCCC,"InChI=1S/C12H22O4/c1-3-9-15-11(13)7-5-6-8-12(14)16-10-4-2/h3-10H2,1-2H3",NKOUWLLFHNBUDW-UHFFFAOYSA-N,?,,-15.7,101738
101739,106-20-7,106-20-7,CCCCC(CNCC(CCCC)CC)CC,Di-(2-ethylhexyl)amine,"2,2'-Diethylhexylamine",2-ethyl-N-(2-ethylhexyl)hexan-1-amine,29006,DTXSID7025053,CCCCC(CNCC(CCCC)CC)CC,"InChI=1S/C16H35N/c1-5-9-11-15(7-3)13-17-14-16(8-4)12-10-6-2/h15-17H,5-14H2,1-4H3",SAIKULLUBZKPDA-UHFFFAOYSA-N,?,,-60.0,101739
101740,106-27-4,106-27-4,CCCC(=O)OCCC(C)C,ISOPENTYL BUTANOATE,Isopentyl butyrate,3-methylbutyl butanoate,29007,DTXSID3042059,CCCC(=O)OCCC(C)C,"InChI=1S/C9H18O2/c1-4-5-9(10)11-7-6-8(2)3/h8H,4-7H2,1-3H3",PQLMXFQTAMDXIZ-UHFFFAOYSA-N,?,,-73.2,101740
101742,106-31-0,106-31-0,CCCC(=O)OC(=O)CCC,BUTYRIC ANHYDRIDE,Butanoic anhydride,butanoic anhydride,29009,DTXSID8026729,CCCC(=O)OC(=O)CCC,"InChI=1S/C8H14O3/c1-3-5-7(9)11-8(10)6-4-2/h3-6H2,1-2H3",YHASWHZGWUONAO-UHFFFAOYSA-N,?,,-75.0,101742
101743,106-32-1,106-32-1,CCCCCCCC(=O)OCC,ETHYL OCTANOATE,Ethyl octanoate,ethyl octanoate,29010,DTXSID8051542,CCCCCCCC(=O)OCC,"InChI=1S/C10H20O2/c1-3-5-6-7-8-9-10(11)12-4-2/h3-9H2,1-2H3",YYZUSRORWSJGET-UHFFFAOYSA-N,?,,-43.1,101743
101744,106-33-2,106-33-2,CCCCCCCCCCCC(=O)OCC,ETHYL LAURATE,Ethyl dodecanoate,ethyl dodecanoate,29011,DTXSID4047044,CCCCCCCCCCCC(=O)OCC,"InChI=1S/C14H28O2/c1-3-5-6-7-8-9-10-11-12-13-14(15)16-4-2/h3-13H2,1-2H3",MMXKVMNBHPAILY-UHFFFAOYSA-N,?,,-10.0,101744
101747,106-36-5,106-36-5,CCC(=O)OCCC,N-PROPYLPROPIONATE,Propyl propionate,propyl propanoate,29013,DTXSID4042337,CCC(=O)OCCC,"InChI=1S/C6H12O2/c1-3-5-8-6(7)4-2/h3-5H2,1-2H3",MCSINKKTEDDPNK-UHFFFAOYSA-N,?,,-75.9,101747
101748,106-37-6,106-37-6,Brc1ccc(Br)cc1,"1,4-DIBROMOBENZENE","1,4-Dibromobenzene","1,4-dibromobenzene",29014,DTXSID4024012,Brc1ccc(Br)cc1,InChI=1S/C6H4Br2/c7-5-1-2-6(8)4-3-5/h1-4H,SWJPEBQEEAHIGZ-UHFFFAOYSA-N,?,,87.3,101748
101749,106-38-7,106-38-7,Cc1ccc(Br)cc1,P-BROMOTOLUENE,4-Bromotoluene,1-bromo-4-methylbenzene,29015,DTXSID7024661,Cc1ccc(Br)cc1,"InChI=1S/C7H7Br/c1-6-2-4-7(8)5-3-6/h2-5H,1H3",ZBTMRBYMKUEVEU-UHFFFAOYSA-N,?,,28.5,101749
101751,106-40-1,106-40-1,Nc1ccc(Br)cc1,P-BROMOANILINE,4-Bromoaniline,4-bromoaniline,29017,DTXSID7021867,Nc1ccc(Br)cc1,"InChI=1S/C6H6BrN/c7-5-1-3-6(8)4-2-5/h1-4H,8H2",WDFQBORIUYODSI-UHFFFAOYSA-N,?,,66.4,101751
101752,106-41-2,106-41-2,Oc1ccc(Br)cc1,P-BROMOPHENOL,4-Bromophenol,4-bromophenol,29018,DTXSID3051543,Oc1ccc(Br)cc1,"InChI=1S/C6H5BrO/c7-5-1-3-6(8)4-2-5/h1-4,8H",GZFGOTFRPZRKDS-UHFFFAOYSA-N,?,,66.4,101752
101753,106-42-3,106-42-3,Cc1ccc(C)cc1,P-XYLENE,p-Xylene,"1,4-dimethylbenzene",29019,DTXSID2021868,Cc1ccc(C)cc1,"InChI=1S/C8H10/c1-7-3-5-8(2)6-4-7/h3-6H,1-2H3",URLKBWYHVLBVBO-UHFFFAOYSA-N,?,,13.2,101753
101755,106-44-5,106-44-5,Cc1ccc(O)cc1,P-CRESOL,p-Cresol,4-methylphenol,29021,DTXSID7021869,Cc1ccc(O)cc1,"InChI=1S/C7H8O/c1-6-2-4-7(8)5-3-6/h2-5,8H,1H3",IWDCLRJOBJJRNH-UHFFFAOYSA-N,?,,35.5,101755
101756,106-45-6,106-45-6,Cc1ccc(S)cc1,4-METHYLBENZENETHIOL,4-Thiocresol,4-methylbenzenethiol,29022,DTXSID5048188,Cc1ccc(S)cc1,"InChI=1S/C7H8S/c1-6-2-4-7(8)5-3-6/h2-5,8H,1H3",WLHCBQAPPJAULW-UHFFFAOYSA-N,?,,43.0,101756
101757,106-46-7,106-46-7,Clc1ccc(Cl)cc1,"1,4-DICHLOROBENZENE","1,4-Dichlorobenzene","1,4-dichlorobenzene",29023,DTXSID1020431,Clc1ccc(Cl)cc1,InChI=1S/C6H4Cl2/c7-5-1-2-6(8)4-3-5/h1-4H,OCJBOOLMMGQPQU-UHFFFAOYSA-N,?,,52.09,101757
101759,106-48-9,106-48-9,Oc1ccc(Cl)cc1,4-CHLOROPHENOL,4-Chlorophenol,4-chlorophenol,29025,DTXSID1021871,Oc1ccc(Cl)cc1,"InChI=1S/C6H5ClO/c7-5-1-3-6(8)4-2-5/h1-4,8H",WXNZTHHGJRFXKQ-UHFFFAOYSA-N,?,,42.7,101759
101760,106-49-0,106-49-0,Cc1ccc(N)cc1,P-TOLUIDINE,4-Methylaniline,4-methylaniline,29026,DTXSID6021872,Cc1ccc(N)cc1,"InChI=1S/C7H9N/c1-6-2-4-7(8)5-3-6/h2-5H,8H2,1H3",RZXMPPFPUUCRFN-UHFFFAOYSA-N,?,,43.7,101760
101761,106-50-3,106-50-3,Nc1ccc(N)cc1,"1,4-BENZENEDIAMINE","1,4-Benzenediamine","benzene-1,4-diamine",29027,DTXSID9021138,Nc1ccc(N)cc1,"InChI=1S/C6H8N2/c7-5-1-2-6(8)4-3-5/h1-4H,7-8H2",CBCKQZAAMUWICA-UHFFFAOYSA-N,?,,146.0,101761
101763,106-52-5,106-52-5,CN1CCC(O)CC1,"4-Piperidinol, 1-methyl-","4-Piperidinol, 1-methyl-",1-Methylpiperidin-4-ol,29029,DTXSID9059339,CN1CCC(O)CC1,"InChI=1S/C6H13NO/c1-7-4-2-6(8)3-5-7/h6,8H,2-5H2,1H3",BAUWRHPMUVYFOD-UHFFFAOYSA-N,?,,29.0,101763
101764,106-53-6,106-53-6,Sc1ccc(Br)cc1,"Benzenethiol, 4-bromo-","Benzenethiol, 4-bromo-",4-Bromobenzenethiol,29030,DTXSID8059340,Sc1ccc(Br)cc1,"InChI=1S/C6H5BrS/c7-5-1-3-6(8)4-2-5/h1-4,8H",FTBCOQFMQSTCQQ-UHFFFAOYSA-N,?,,73.0,101764
101765,106-54-7,106-54-7,Sc1ccc(Cl)cc1,4-CHLOROBENZENETHIOL,"Benzenethiol, 4-chloro-",4-Chlorobenzenethiol,29031,DTXSID3059341,Sc1ccc(Cl)cc1,"InChI=1S/C6H5ClS/c7-5-1-3-6(8)4-2-5/h1-4,8H",VZXOZSQDJJNBRC-UHFFFAOYSA-N,?,,61.0,101765