ChemID,source_casrn,CAS,SMILES,NAME,preferred_name,iupac,MPID,dsstox_substance_id,Canonical_QSARr,InChI_Code_QSARr,InChI Key_QSARr,Salt_Solvent,Salt_Solvent_ID,MP,ID
101450,99-20-7,99-20-7,O[C@H]1[C@H](O[C@H](CO)[C@@H](O)[C@@H]1O)O[C@H]1O[C@H](CO)[C@@H](O)[C@H](O)[C@H]1O,Trehalose,Trehalose,alpha-D-glucopyranosyl alpha-D-glucopyranoside,28736,DTXSID3048102,OC1C(OC(CO)C(O)C1O)OC1OC(CO)C(O)C(O)C1O,"InChI=1S/C12H22O11/c13-1-3-5(15)7(17)9(19)11(21-3)23-12-10(20)8(18)6(16)4(2-14)22-12/h3-20H,1-2H2",HDTRYLNUVZCQOY-UHFFFAOYSA-N,?,,203.0,101450
101451,99-23-0,99-23-0,OC(=O)C1=CC(O)=C(O)C(=O)C(O)=C1,Puberulic Acid,,,28737,DTXSID70879321,OC(=O)C1=CC(O)=C(O)C(=O)C(O)=C1,"InChI=1S/C8H6O6/c9-4-1-3(8(13)14)2-5(10)7(12)6(4)11/h1-2H,(H,13,14)(H3,9,10,11,12)",RRDGXYZZWSIADF-UHFFFAOYSA-N,?,,317.0,101451
101455,99-32-1,99-32-1,OC(=O)C1=CC(=O)C=C(O1)C(O)=O,"4-OXO-4H-PYRAN-2,6-DICARBOXYLIC ACID",Chelidonic acid,"4-oxopyran-2,6-dicarboxylic acid",28739,DTXSID30243928,OC(=O)C1=CC(=O)C=C(O1)C(O)=O,"InChI=1S/C7H4O6/c8-3-1-4(6(9)10)13-5(2-3)7(11)12/h1-2H,(H,9,10)(H,11,12)",PBAYDYUZOSNJGU-UHFFFAOYSA-N,?,,262.0,101455
101456,99-33-2,99-33-2,[O-][N+](=O)c1cc(cc(c1)[N+]([O-])=O)C(=O)Cl,"Benzoyl chloride, 3,5-dinitro-","Benzoyl chloride, 3,5-dinitro-","3,5-Dinitrobenzoyl chloride",28740,DTXSID2059194,[O-][N+](=O)c1cc(cc(c1)[N+]([O-])=O)C(=O)Cl,InChI=1S/C7H3ClN2O5/c8-7(11)4-1-5(9(12)13)3-6(2-4)10(14)15/h1-3H,NNOHXABAQAGKRZ-UHFFFAOYSA-N,?,,74.0,101456
101458,99-35-4,99-35-4,[O-][N+](=O)c1cc(cc(c1)[N+]([O-])=O)[N+]([O-])=O,"1,3,5-TRINITROBENZENE","1,3,5-Trinitrobenzene","1,3,5-trinitrobenzene",28742,DTXSID6021406,[O-][N+](=O)c1cc(cc(c1)[N+]([O-])=O)[N+]([O-])=O,InChI=1S/C6H3N3O6/c10-7(11)4-1-5(8(12)13)3-6(2-4)9(14)15/h1-3H,UATJOMSPNYCXIX-UHFFFAOYSA-N,?,,121.5,101458
101459,99-51-4,99-51-4,Cc1cc(ccc1C)[N+]([O-])=O,"1,2-DIMETHYL-4-NITROBENZENE","1,2-Dimethyl-4-nitrobenzene","1,2-dimethyl-4-nitrobenzene",28743,DTXSID2025133,Cc1cc(ccc1C)[N+]([O-])=O,"InChI=1S/C8H9NO2/c1-6-3-4-8(9(10)11)5-7(6)2/h3-5H,1-2H3",HFZKOYWDLDYELC-UHFFFAOYSA-N,?,,30.5,101459
101460,99-52-5,99-52-5,Cc1cc(ccc1N)[N+]([O-])=O,4-NITRO-2-TOLUIDINE,2-Methyl-4-nitroaniline,2-methyl-4-nitroaniline,28744,DTXSID3025629,Cc1cc(ccc1N)[N+]([O-])=O,"InChI=1S/C7H8N2O2/c1-5-4-6(9(10)11)2-3-7(5)8/h2-4H,8H2,1H3",XTTIQGSLJBWVIV-UHFFFAOYSA-N,?,,133.5,101460
101462,99-54-7,99-54-7,[O-][N+](=O)c1cc(Cl)c(Cl)cc1,"3,4-DICHLORONITROBENZENE","3,4-Dichloronitrobenzene","1,2-dichloro-4-nitrobenzene",28746,DTXSID8024999,[O-][N+](=O)c1cc(Cl)c(Cl)cc1,InChI=1S/C6H3Cl2NO2/c7-5-2-1-4(9(10)11)3-6(5)8/h1-3H,NTBYINQTYWZXLH-UHFFFAOYSA-N,?,,43.0,101462
101463,99-55-8,99-55-8,Cc1ccc(cc1N)[N+]([O-])=O,5-NITRO-2-TOLUIDINE,2-Methyl-5-nitroaniline,2-methyl-5-nitroaniline,28747,DTXSID4020959,Cc1ccc(cc1N)[N+]([O-])=O,"InChI=1S/C7H8N2O2/c1-5-2-3-6(9(10)11)4-7(5)8/h2-4H,8H2,1H3",DSBIJCMXAIKKKI-UHFFFAOYSA-N,?,,105.5,101463
101464,99-56-9,99-56-9,Nc1cc(ccc1N)[N+]([O-])=O,2-AMINO-4-NITROANILINE,"4-Nitro-1,2-phenylenediamine","4-nitrobenzene-1,2-diamine",28748,DTXSID9020958,Nc1cc(ccc1N)[N+]([O-])=O,"InChI=1S/C6H7N3O2/c7-5-2-1-4(9(10)11)3-6(5)8/h1-3H,7-8H2",RAUWPNXIALNKQM-UHFFFAOYSA-N,?,,199.5,101464
101466,99-59-2,99-59-2,COc1ccc(cc1N)[N+]([O-])=O,2-METHOXY-5-NITROANILINE,2-Methoxy-5-nitroaniline,2-methoxy-5-nitroaniline,28750,DTXSID0020943,COc1ccc(cc1N)[N+]([O-])=O,"InChI=1S/C7H8N2O3/c1-12-7-3-2-5(9(10)11)4-6(7)8/h2-4H,8H2,1H3",NIPDVSLAMPAWTP-UHFFFAOYSA-N,?,,118.0,101466
101467,99-60-5,99-60-5,[O-][N+](=O)c1cc(Cl)c(cc1)C(O)=O,"BENZOIC ACID, 2-CHLORO-4-NITRO-","Benzoic acid, 2-chloro-4-nitro-",2-Chloro-4-nitrobenzoic acid,28751,DTXSID2059198,[O-][N+](=O)c1cc(Cl)c(cc1)C(O)=O,"InChI=1S/C7H4ClNO4/c8-6-3-4(9(12)13)1-2-5(6)7(10)11/h1-3H,(H,10,11)",QAYNSPOKTRVZRC-UHFFFAOYSA-N,?,,140.0,101467
101468,99-61-6,99-61-6,[O-][N+](=O)c1cccc(c1)C=O,M-NITROBENZALDEHYDE,3-Nitrobenzaldehyde,3-nitrobenzaldehyde,28752,DTXSID8049383,[O-][N+](=O)c1cccc(c1)C=O,InChI=1S/C7H5NO3/c9-5-6-2-1-3-7(4-6)8(10)11/h1-5H,ZETIVVHRRQLWFW-UHFFFAOYSA-N,?,,58.5,101468
101470,99-63-8,99-63-8,O=C(Cl)c1cc(ccc1)C(=O)Cl,"1,3-Benzenedicarbonyl dichloride","1,3-Benzenedicarbonyl dichloride","benzene-1,3-dicarbonyl dichloride",28754,DTXSID3026641,O=C(Cl)c1cc(ccc1)C(=O)Cl,InChI=1S/C8H4Cl2O2/c9-7(11)5-2-1-3-6(4-5)8(10)12/h1-4H,FDQSRULYDNDXQB-UHFFFAOYSA-N,?,,43.5,101470
101471,99-65-0,99-65-0,[O-][N+](=O)c1cc(ccc1)[N+]([O-])=O,"1,3-DINITROBENZENE","1,3-Dinitrobenzene","1,3-dinitrobenzene",28755,DTXSID9024065,[O-][N+](=O)c1cc(ccc1)[N+]([O-])=O,InChI=1S/C6H4N2O4/c9-7(10)5-2-1-3-6(4-5)8(11)12/h1-4H,WDCYWAQPCXBPJA-UHFFFAOYSA-N,?,,90.0,101471
101472,99-71-8,99-71-8,CCC(C)c1ccc(O)cc1,P-(SEC-BUTYL)PHENOL,4-(Butan-2-yl)phenol,4-(butan-2-yl)phenol,28756,DTXSID7022332,CCC(C)c1ccc(O)cc1,"InChI=1S/C10H14O/c1-3-8(2)9-4-6-10(11)7-5-9/h4-8,11H,3H2,1-2H3",ZUTYZAFDFLLILI-UHFFFAOYSA-N,?,,61.5,101472
101474,99-75-2,99-75-2,Cc1ccc(cc1)C(=O)OC,"BENZOIC ACID, 4-METHYL-, METHYL ESTER",Methyl 4-methylbenzoate,methyl 4-methylbenzoate,28758,DTXSID4025668,Cc1ccc(cc1)C(=O)OC,"InChI=1S/C9H10O2/c1-7-3-5-8(6-4-7)9(10)11-2/h3-6H,1-2H3",QSSJZLPUHJDYKF-UHFFFAOYSA-N,?,,33.2,101474
101475,99-76-3,99-76-3,COC(=O)c1ccc(O)cc1,4-HYDROXY METHYL BENZOATE,Methylparaben,methyl 4-hydroxybenzoate,28759,DTXSID4022529,COC(=O)c1ccc(O)cc1,"InChI=1S/C8H8O3/c1-11-8(10)6-2-4-7(9)5-3-6/h2-5,9H,1H3",LXCFILQKKLGQFO-UHFFFAOYSA-N,?,,131.0,101475
101476,99-77-4,99-77-4,CCOC(=O)c1ccc(cc1)[N+]([O-])=O,ETHYL-P-NITROBENZOATE,Ethyl 4-nitrobenzoate,ethyl 4-nitrobenzoate,28760,DTXSID1052666,CCOC(=O)c1ccc(cc1)[N+]([O-])=O,"InChI=1S/C9H9NO4/c1-2-14-9(11)7-3-5-8(6-4-7)10(12)13/h3-6H,2H2,1H3",PHWSCBWNPZDYRI-UHFFFAOYSA-N,?,,57.0,101476
101478,99-82-1|1678-82-6|6069-98-3,99-82-1,CC(C)C1CCC(C)CC1,"P-MENTHANE, Cyclohexane, 1-methyl-4-(1-methylethyl)-, trans-, Cyclohexane, 1-methyl-4-(1-methylethyl)-, cis-",p-Menthane,1-methyl-4-(propan-2-yl)cyclohexane,28762|33163|34512,DTXSID9025530,CC(C)C1CCC(C)CC1,"InChI=1S/C10H20/c1-8(2)10-6-4-9(3)5-7-10/h8-10H,4-7H2,1-3H3",CFJYNSNXFXLKNS-UHFFFAOYSA-N,?,,-87.9333333333,101478
101479,99-85-4,99-85-4,CC1CC=C(CC=1)C(C)C,GAMMA-TERPINENE,gamma-Terpinene,"1-methyl-4-(propan-2-yl)cyclohexa-1,4-diene",28763,DTXSID6041210,CC1CC=C(CC=1)C(C)C,"InChI=1S/C10H16/c1-8(2)10-6-4-9(3)5-7-10/h4,7-8H,5-6H2,1-3H3",YKFLAYDHMOASIY-UHFFFAOYSA-N,?,,-10.0,101479
101480,99-87-6|25155-15-1,99-87-6,Cc1ccc(cc1)C(C)C,"P-CYMENE, P-I-PROPYLTOLUENE",p-Cymene,1-methyl-4-(propan-2-yl)benzene,28764|35278,DTXSID3026645,Cc1ccc(cc1)C(C)C,"InChI=1S/C10H14/c1-8(2)10-6-4-9(3)5-7-10/h4-8H,1-3H3",HFPZCAJZSCWRBC-UHFFFAOYSA-N,?,,-68.45,101480
101482,99-90-1,99-90-1,CC(=O)c1ccc(Br)cc1,P-BROMOACETOPHENONE,"Ethanone, 1-(4-bromophenyl)-",1-(4-Bromophenyl)ethanone,28766,DTXSID4059203,CC(=O)c1ccc(Br)cc1,"InChI=1S/C8H7BrO/c1-6(10)7-2-4-8(9)5-3-7/h2-5H,1H3",WYECURVXVYPVAT-UHFFFAOYSA-N,?,,50.5,101482
101483,99-91-2,99-91-2,CC(=O)c1ccc(Cl)cc1,1-(4-CHLOROPHENYL)ETHANONE,1-(4-Chlorophenyl)ethanone,1-(4-chlorophenyl)ethanone,28767,DTXSID1052668,CC(=O)c1ccc(Cl)cc1,"InChI=1S/C8H7ClO/c1-6(10)7-2-4-8(9)5-3-7/h2-5H,1H3",BUZYGTVTZYSBCU-UHFFFAOYSA-N,?,,20.0,101483
101486,99-94-5,99-94-5,Cc1ccc(cc1)C(O)=O,P-TOLUIC ACID,4-Methylbenzoic acid,4-methylbenzoic acid,28769,DTXSID6021618,Cc1ccc(cc1)C(O)=O,"InChI=1S/C8H8O2/c1-6-2-4-7(5-3-6)8(9)10/h2-5H,1H3,(H,9,10)",LPNBBFKOUUSUDB-UHFFFAOYSA-N,?,,179.6,101486
101487,99-96-7,99-96-7,Oc1ccc(cc1)C(O)=O,P-HYDROXYBENZOIC ACID,4-Hydroxybenzoic acid,4-hydroxybenzoic acid,28770,DTXSID3026647,Oc1ccc(cc1)C(O)=O,"InChI=1S/C7H6O3/c8-6-3-1-5(2-4-6)7(9)10/h1-4,8H,(H,9,10)",FJKROLUGYXJWQN-UHFFFAOYSA-N,?,,214.5,101487
101488,99-98-9,99-98-9,CN(C)c1ccc(N)cc1,"N,N-DIMETHYL-P-PHENYLENEDIAMINE","N,N-Dimethyl-p-phenylenediamine","N,N-dimethylbenzene-1,4-diamine",28771,DTXSID6025149,CN(C)c1ccc(N)cc1,"InChI=1S/C8H12N2/c1-10(2)8-5-3-7(9)4-6-8/h3-6H,9H2,1-2H3",BZORFPDSXLZWJF-UHFFFAOYSA-N,?,,53.0,101488
101490,100-00-5,100-00-5,[O-][N+](=O)c1ccc(Cl)cc1,P-CHLORONITROBENZENE,1-Chloro-4-nitrobenzene,1-chloro-4-nitrobenzene,28773,DTXSID5020281,[O-][N+](=O)c1ccc(Cl)cc1,InChI=1S/C6H4ClNO2/c7-5-1-3-6(4-2-5)8(9)10/h1-4H,CZGCEKJOLUNIFY-UHFFFAOYSA-N,?,,83.5,101490
101491,100-01-6,100-01-6,Nc1ccc(cc1)[N+]([O-])=O,4-NITROANILINE,4-Nitroaniline,4-nitroaniline,28774,DTXSID8020961,Nc1ccc(cc1)[N+]([O-])=O,"InChI=1S/C6H6N2O2/c7-5-1-3-6(4-2-5)8(9)10/h1-4H,7H2",TYMLOMAKGOJONV-UHFFFAOYSA-N,?,,146.0,101491
101492,100-02-7,100-02-7,[O-][N+](=O)c1ccc(O)cc1,4-NITROPHENOL,4-Nitrophenol,4-nitrophenol,28775,DTXSID0021834,[O-][N+](=O)c1ccc(O)cc1,"InChI=1S/C6H5NO3/c8-6-3-1-5(2-4-6)7(9)10/h1-4,8H",BTJIUGUIPKRLHP-UHFFFAOYSA-N,?,,113.8,101492
101494,100-06-1,100-06-1,CC(=O)c1ccc(cc1)OC,P-METHOXYACETOPHENONE,4'-Methoxyacetophenone,1-(4-methoxyphenyl)ethanone,28777,DTXSID2044347,CC(=O)c1ccc(cc1)OC,"InChI=1S/C9H10O2/c1-7(10)8-3-5-9(11-2)6-4-8/h3-6H,1-2H3",NTPLXRHDUXRPNE-UHFFFAOYSA-N,?,,38.5,101494
101495,100-07-2,100-07-2,COc1ccc(cc1)C(=O)Cl,"Benzoyl chloride, 4-methoxy-","Benzoyl chloride, 4-methoxy-",4-Methoxybenzoyl chloride,28778,DTXSID9059204,COc1ccc(cc1)C(=O)Cl,"InChI=1S/C8H7ClO2/c1-11-7-4-2-6(3-5-7)8(9)10/h2-5H,1H3",MXMOTZIXVICDSD-UHFFFAOYSA-N,?,,24.5,101495
101496,100-09-4,100-09-4,COc1ccc(cc1)C(O)=O,P-METHOXYBENZOIC ACID,"Benzoic acid, 4-methoxy-",4-Methoxybenzoic acid,28779,DTXSID4059205,COc1ccc(cc1)C(O)=O,"InChI=1S/C8H8O3/c1-11-7-4-2-6(3-5-7)8(9)10/h2-5H,1H3,(H,9,10)",ZEYHEAKUIGZSGI-UHFFFAOYSA-N,?,,185.0,101496
101498,100-11-8,100-11-8,[O-][N+](=O)c1ccc(CBr)cc1,4-Nitrobenzyl bromide,4-Nitrobenzylbromide,1-(bromomethyl)-4-nitrobenzene,28781,DTXSID7049392,[O-][N+](=O)c1ccc(CBr)cc1,"InChI=1S/C7H6BrNO2/c8-5-6-1-3-7(4-2-6)9(10)11/h1-4H,5H2",VOLRSQPSJGXRNJ-UHFFFAOYSA-N,?,,99.0,101498
101499,100-12-9,100-12-9,CCc1ccc(cc1)[N+]([O-])=O,4-ETHYLNITROBENZENE,"Benzene, 1-ethyl-4-nitro-",1-Ethyl-4-nitrobenzene,28782,DTXSID9059206,CCc1ccc(cc1)[N+]([O-])=O,"InChI=1S/C8H9NO2/c1-2-7-3-5-8(6-4-7)9(10)11/h3-6H,2H2,1H3",RESTWAHJFMZUIZ-UHFFFAOYSA-N,?,,-12.3,101499
101500,100-14-1,100-14-1,[O-][N+](=O)c1ccc(CCl)cc1,"Benzene, 1-(chloromethyl)-4-nitro-",4-Nitrobenzyl chloride,1-(chloromethyl)-4-nitrobenzene,28783,DTXSID4025745,[O-][N+](=O)c1ccc(CCl)cc1,"InChI=1S/C7H6ClNO2/c8-5-6-1-3-7(4-2-6)9(10)11/h1-4H,5H2",KGCNHWXDPDPSBV-UHFFFAOYSA-N,?,,71.0,101500
101502,100-17-4,100-17-4,COc1ccc(cc1)[N+]([O-])=O,P-NITROANISOLE,p-Nitroanisole,1-Methoxy-4-nitrobenzene,28785,DTXSID9059208,COc1ccc(cc1)[N+]([O-])=O,"InChI=1S/C7H7NO3/c1-11-7-4-2-6(3-5-7)8(9)10/h2-5H,1H3",BNUHAJGCKIQFGE-UHFFFAOYSA-N,?,,54.0,101502
101503,100-18-5,100-18-5,CC(C)c1ccc(cc1)C(C)C,"1,4-DIISOPROPYLBENZENE","1,4-Diisopropylbenzene","1,4-di(propan-2-yl)benzene",28786,DTXSID2026652,CC(C)c1ccc(cc1)C(C)C,"InChI=1S/C12H18/c1-9(2)11-5-7-12(8-6-11)10(3)4/h5-10H,1-4H3",SPPWGCYEYAMHDT-UHFFFAOYSA-N,?,,-17.0,101503
101504,100-19-6,100-19-6,CC(=O)c1ccc(cc1)[N+]([O-])=O,P-NITROACETOPHENONE,4-Nitroacetophenone,1-(4-nitrophenyl)ethanone,28787,DTXSID1025724,CC(=O)c1ccc(cc1)[N+]([O-])=O,"InChI=1S/C8H7NO3/c1-6(10)7-2-4-8(5-3-7)9(11)12/h2-5H,1H3",YQYGPGKTNQNXMH-UHFFFAOYSA-N,?,,81.8,101504
101506,100-22-1,100-22-1,CN(C)c1ccc(cc1)N(C)C,"N,N,N',N'-TETRAMETHYL-P-PHENYLENEDIAMINE","N,N,N',N'-Tetramethyl-p-phenylenediamine","N,N,N',N'-tetramethylbenzene-1,4-diamine",28789,DTXSID5026124,CN(C)c1ccc(cc1)N(C)C,"InChI=1S/C10H16N2/c1-11(2)9-5-7-10(8-6-9)12(3)4/h5-8H,1-4H3",CJAOGUFAAWZWNI-UHFFFAOYSA-N,?,,51.0,101506
101507,100-23-2,100-23-2,CN(C)c1ccc(cc1)[N+]([O-])=O,"P-NITRO-N,N-DIMETHYLANILINE","Benzenamine, N,N-dimethyl-4-nitro-","N,N-Dimethyl-4-nitroaniline",28790,DTXSID4059209,CN(C)c1ccc(cc1)[N+]([O-])=O,"InChI=1S/C8H10N2O2/c1-9(2)7-3-5-8(6-4-7)10(11)12/h3-6H,1-2H3",QJAIOCKFIORVFU-UHFFFAOYSA-N,?,,164.0,101507
101508,100-25-4,100-25-4,[O-][N+](=O)c1ccc(cc1)[N+]([O-])=O,P-DINITROBENZENE,"1,4-Dinitrobenzene","1,4-dinitrobenzene",28791,DTXSID0021836,[O-][N+](=O)c1ccc(cc1)[N+]([O-])=O,InChI=1S/C6H4N2O4/c9-7(10)5-1-2-6(4-3-5)8(11)12/h1-4H,FYFDQJRXFWGIBS-UHFFFAOYSA-N,?,,174.0,101508
101510,100-27-6,100-27-6,[O-][N+](=O)c1ccc(CCO)cc1,2-(P-NITROPHENYL)ETHANOL,2-(4-Nitrophenyl)ethanol,2-(4-nitrophenyl)ethanol,28793,DTXSID7025764,[O-][N+](=O)c1ccc(CCO)cc1,"InChI=1S/C8H9NO3/c10-6-5-7-1-3-8(4-2-7)9(11)12/h1-4,10H,5-6H2",IKMXRUOZUUKSON-UHFFFAOYSA-N,?,,63.0,101510
101511,100-28-7,100-28-7,[O-][N+](=O)c1ccc(cc1)N=C=O,"Benzene, 1-isocyanato-4-nitro-",,,28794,DTXSID80870440,[O-][N+](=O)c1ccc(cc1)N=C=O,InChI=1S/C7H4N2O3/c10-5-8-6-1-3-7(4-2-6)9(11)12/h1-4H,GFNKTLQTQSALEJ-UHFFFAOYSA-N,?,,57.0,101511
101512,100-29-8,100-29-8,CCOc1ccc(cc1)[N+]([O-])=O,P-NITROPHENETOLE,1-Ethoxy-4-nitrobenzene,1-ethoxy-4-nitrobenzene,28795,DTXSID7026655,CCOc1ccc(cc1)[N+]([O-])=O,"InChI=1S/C8H9NO3/c1-2-12-8-5-3-7(4-6-8)9(10)11/h3-6H,2H2,1H3",NWPKEYHUZKMWKJ-UHFFFAOYSA-N,?,,60.0,101512
101514,100-39-0,100-39-0,BrCc1ccccc1,ALPHA-BROMOTOLUENE,alpha-Bromotoluene,(bromomethyl)benzene,28797,DTXSID8024658,BrCc1ccccc1,"InChI=1S/C7H7Br/c8-6-7-4-2-1-3-5-7/h1-5H,6H2",AGEZXYOZHKGVCM-UHFFFAOYSA-N,?,,-3.0,101514
101515,100-40-3,100-40-3,C=CC1CC=CCC1,4-VINYLCYCLOHEXENE,4-Vinylcyclohexene,4-ethenylcyclohexene,28798,DTXSID3021437,C=CC1CC=CCC1,"InChI=1S/C8H12/c1-2-8-6-4-3-5-7-8/h2-4,8H,1,5-7H2",BBDKZWKEPDTENS-UHFFFAOYSA-N,?,,-108.9,101515
101516,100-41-4,100-41-4,CCc1ccccc1,ETHYLBENZENE,Ethylbenzene,C8H10,28799,DTXSID3020596,CCc1ccccc1,"InChI=1S/C8H10/c1-2-8-6-4-3-5-7-8/h3-7H,2H2,1H3",YNQLUTRBYVCPMQ-UHFFFAOYSA-N,?,,-94.9,101516
101518,100-44-7,100-44-7,ClCc1ccccc1,ALPHA-CHLOROTOLUENE,Benzyl chloride,(chloromethyl)benzene,28801,DTXSID0020153,ClCc1ccccc1,"InChI=1S/C7H7Cl/c8-6-7-4-2-1-3-5-7/h1-5H,6H2",KCXMKQUNVWSEMD-UHFFFAOYSA-N,?,,-45.0,101518
101520,100-47-0,100-47-0,N#Cc1ccccc1,BENZONITRILE,Benzonitrile,benzonitrile,28802,DTXSID7021491,N#Cc1ccccc1,InChI=1S/C7H5N/c8-6-7-4-2-1-3-5-7/h1-5H,JFDZBHWFFUWGJE-UHFFFAOYSA-N,?,,-12.7,101520
101522,100-49-2,100-49-2,OCC1CCCCC1,Cyclohexanemethanol,Cyclohexanemethanol,Cyclohexylmethanol,28804,DTXSID3059212,OCC1CCCCC1,"InChI=1S/C7H14O/c8-6-7-4-2-1-3-5-7/h7-8H,1-6H2",VSSAZBXXNIABDN-UHFFFAOYSA-N,?,,-43.0,101522
101523,100-50-5,100-50-5,O=CC1CC=CCC1,3-CYCLOHEXENE-1-CARBOXALDEHYDE,3-Cyclohexene-1-carboxaldehyde,cyclohex-3-ene-1-carbaldehyde,28805,DTXSID1026661,O=CC1CC=CCC1,"InChI=1S/C7H10O/c8-6-7-4-2-1-3-5-7/h1-2,6-7H,3-5H2",DCFDVJPDXYGCOK-UHFFFAOYSA-N,?,,2.0,101523
101524,100-51-6,100-51-6,OCc1ccccc1,BENZYL ALCOHOL,Benzyl alcohol,phenylmethanol,28806,DTXSID5020152,OCc1ccccc1,"InChI=1S/C7H8O/c8-6-7-4-2-1-3-5-7/h1-5,8H,6H2",WVDDGKGOMKODPV-UHFFFAOYSA-N,?,,-15.2,101524
101526,100-53-8,100-53-8,SCc1ccccc1,Benzenemethanethiol,Benzenemethanethiol,phenylmethanethiol,28808,DTXSID6026664,SCc1ccccc1,"InChI=1S/C7H8S/c8-6-7-4-2-1-3-5-7/h1-5,8H,6H2",UENWRTRMUIOCKN-UHFFFAOYSA-N,?,,-30.0,101526
101527,100-54-9,100-54-9,N#Cc1c[n]ccc1,3-CYANOPYRIDINE,3-Pyridinecarbonitrile,pyridine-3-carbonitrile,28809,DTXSID1026665,N#Cc1c[n]ccc1,"InChI=1S/C6H4N2/c7-4-6-2-1-3-8-5-6/h1-3,5H",GZPHSAQLYPIAIN-UHFFFAOYSA-N,?,,51.0,101527
101528,100-55-0,100-55-0,OCc1c[n]ccc1,3-PYRIDINEMETHANOL,Nicotinyl alcohol,pyridin-3-ylmethanol,28810,DTXSID6023367,OCc1c[n]ccc1,"InChI=1S/C6H7NO/c8-5-6-2-1-3-7-4-6/h1-4,8H,5H2",MVQVNTPHUGQQHK-UHFFFAOYSA-N,?,,-6.5,101528
101531,100-63-0,100-63-0,NNc1ccccc1,PHENYL HYDRAZINE,Phenylhydrazine,phenylhydrazine,28812,DTXSID8021147,NNc1ccccc1,"InChI=1S/C6H8N2/c7-8-6-4-2-1-3-5-6/h1-5,8H,7H2",HKOOXMFOFWEVGF-UHFFFAOYSA-N,?,,19.6,101531
101532,100-64-1,100-64-1,ON=C1CCCCC1,CYCLOHEXANONE OXIME,Cyclohexanone oxime,N-hydroxycyclohexanimine,28813,DTXSID4021842,O=NC1CCCCC1,"InChI=1S/C6H11NO/c8-7-6-4-2-1-3-5-6/h6H,1-5H2",AFLQDEOAJRGCOW-UHFFFAOYSA-N,?,,90.0,101532
101533,100-65-2,100-65-2,ONc1ccccc1,PHENYLHYDROXYLAMINE,N-Phenylhydroxylamine,N-hydroxyaniline,28814,DTXSID3025889,ONc1ccccc1,"InChI=1S/C6H7NO/c8-7-6-4-2-1-3-5-6/h1-5,7-8H",CKRZKMFTZCFYGB-UHFFFAOYSA-N,?,,83.5,101533
101535,100-70-9,100-70-9,N#Cc1cccc[n]1,2-CYANOPYRIDINE,2-Pyridinecarbonitrile,pyridine-2-carbonitrile,28816,DTXSID9021843,N#Cc1cccc[n]1,InChI=1S/C6H4N2/c7-5-6-3-1-2-4-8-6/h1-4H,FFNVQNRYTPFDDP-UHFFFAOYSA-N,?,,29.0,101535
101536,100-71-0,100-71-0,CCc1cccc[n]1,2-ETHYLPYRIDINE,2-Ethylpyridine,2-ethylpyridine,28817,DTXSID4021844,CCc1cccc[n]1,"InChI=1S/C7H9N/c1-2-7-5-3-4-6-8-7/h3-6H,2H2,1H3",NRGGMCIBEHEAIL-UHFFFAOYSA-N,?,,-63.1,101536
101537,100-74-3,100-74-3,CCN1CCOCC1,4-ETHYLMORPHOLINE,N-Ethylmorpholine,4-ethylmorpholine,28818,DTXSID5025312,CCN1CCOCC1,"InChI=1S/C6H13NO/c1-2-7-3-5-8-6-4-7/h2-6H2,1H3",HVCNXQOWACZAFN-UHFFFAOYSA-N,?,,-64.0,101537
101539,100-80-1,100-80-1,Cc1cc(C=C)ccc1,M-METHYLSTYRENE,3-Methylstyrene,1-ethenyl-3-methylbenzene,28820,DTXSID9051454,Cc1cc(C=C)ccc1,"InChI=1S/C9H10/c1-3-9-6-4-5-8(2)7-9/h3-7H,1H2,2H3",JZHGRUMIRATHIU-UHFFFAOYSA-N,?,,-86.3,101539
101540,100-83-4,100-83-4,Oc1cc(C=O)ccc1,3-HYDROXYBENZALDEHYDE,"Benzaldehyde, 3-hydroxy-",3-hydroxybenzaldehyde,28821,DTXSID7059220,Oc1cc(C=O)ccc1,"InChI=1S/C7H6O2/c8-5-6-2-1-3-7(9)4-6/h1-5,9H",IAVREABSGIHHMO-UHFFFAOYSA-N,?,,108.0,101540
101541,100-84-5,100-84-5,Cc1cccc(c1)OC,M-METHYLANISOLE,3-Methoxytoluene,1-methoxy-3-methylbenzene,28822,DTXSID2051500,Cc1cccc(c1)OC,"InChI=1S/C8H10O/c1-7-4-3-5-8(6-7)9-2/h3-6H,1-2H3",OSIGJGFTADMDOB-UHFFFAOYSA-N,?,,-47.0,101541
101543,100-88-9,100-88-9,OS(=O)(=O)NC1CCCCC1,CYCLAMATE,Cyclamic acid,cyclohexylsulfamic acid,28824,DTXSID5041809,OS(=O)(=O)NC1CCCCC1,"InChI=1S/C6H13NO3S/c8-11(9,10)7-6-4-2-1-3-5-6/h6-7H,1-5H2,(H,8,9,10)",HCAJEUSONLESMK-UHFFFAOYSA-N,?,,169.5,101543
101544,100-91-4,100-91-4,CC1CC(CC(C)(C)N1C)OC(=O)C(O)c1ccccc1,Eucatropine,Eucatropine,"1,2,2,6-tetramethylpiperidin-4-yl hydroxy(phenyl)acetate",28825,DTXSID1048465,CC1CC(CC(C)(C)N1C)OC(=O)C(O)c1ccccc1,"InChI=1S/C17H25NO3/c1-12-10-14(11-17(2,3)18(12)4)21-16(20)15(19)13-8-6-5-7-9-13/h5-9,12,14-15,19H,10-11H2,1-4H3",QSAVEGSLJISCDF-UHFFFAOYSA-N,?,,113.0,101544
101545,100-95-8,100-95-8,[Cl-].CCCCCCCCCCCCNC(=O)C[N+](C)(C)Cc1ccccc1,Dodecarbonium Chloride,,,28826,DTXSID20878647,CCCCCCCCCCCCNC(=O)C[N+](C)(C)Cc1ccccc1,"InChI=1S/C23H40N2O/c1-4-5-6-7-8-9-10-11-12-16-19-24-23(26)21-25(2,3)20-22-17-14-13-15-18-22/h13-15,17-18H,4-12,16,19-21H2,1-3H3/p+1",DYKFIFLJEJVONL-UHFFFAOYSA-O,[Cl-],18179,147.5,101545
101548,101-02-0,101-02-0,c1ccccc1OP(Oc1ccccc1)Oc1ccccc1,"Phosphorous acid, triphenyl ester",Triphenyl phosphite,triphenyl phosphite,28828,DTXSID0026252,c1ccccc1OP(Oc1ccccc1)Oc1ccccc1,InChI=1S/C18H15O3P/c1-4-10-16(11-5-1)19-22(20-17-12-6-2-7-13-17)21-18-14-8-3-9-15-18/h1-15H,HVLLSGMXQDNUAL-UHFFFAOYSA-N,?,,25.0,101548
101549,101-05-3,101-05-3,Clc1ccccc1Nc1[n]c(Cl)[n]c(Cl)[n]1,ANILAZINE,Anilazine,"4,6-dichloro-N-(2-chlorophenyl)-1,3,5-triazin-2-amine",28829,DTXSID9020089,Clc1ccccc1Nc1[n]c(Cl)[n]c(Cl)[n]1,"InChI=1S/C9H5Cl3N4/c10-5-3-1-2-4-6(5)13-9-15-7(11)14-8(12)16-9/h1-4H,(H,13,14,15,16)",IMHBYKMAHXWHRP-UHFFFAOYSA-N,?,,160.0,101549
101550,101-14-4,101-14-4,Nc1ccc(Cc2cc(Cl)c(N)cc2)cc1Cl,"4,4'-METHYLENEBIS(2-CHLOROANILINE)","4,4'-Methylenebis(2-chloroaniline)","4,4'-methanediylbis(2-chloroaniline)",28830,DTXSID5020865,Nc1ccc(Cc2cc(Cl)c(N)cc2)cc1Cl,"InChI=1S/C13H12Cl2N2/c14-10-6-8(1-3-12(10)16)5-9-2-4-13(17)11(15)7-9/h1-4,6-7H,5,16-17H2",IBOFVQJTBBUKMU-UHFFFAOYSA-N,?,,110.0,101550
101552,101-18-8,101-18-8,Oc1cc(ccc1)Nc1ccccc1,"Phenol, 3-(phenylamino)-",3-Hydroxy-N-phenylaniline,3-(phenylamino)phenol,28832,DTXSID1025431,Oc1cc(ccc1)Nc1ccccc1,"InChI=1S/C12H11NO/c14-12-8-4-7-11(9-12)13-10-5-2-1-3-6-10/h1-9,13-14H",NDACNGSDAFKTGE-UHFFFAOYSA-N,?,,81.5,101552
101553,101-20-2,101-20-2,O=C(Nc1cc(Cl)c(Cl)cc1)Nc1ccc(Cl)cc1,Triclocarban,Triclocarban,"1-(4-chlorophenyl)-3-(3,4-dichlorophenyl)urea",28833,DTXSID4026214,O=C(Nc1cc(Cl)c(Cl)cc1)Nc1ccc(Cl)cc1,"InChI=1S/C13H9Cl3N2O/c14-8-1-3-9(4-2-8)17-13(19)18-10-5-6-11(15)12(16)7-10/h1-7H,(H2,17,18,19)",ICUTUKXCWQYESQ-UHFFFAOYSA-N,?,,255.6,101553
101554,101-21-3,101-21-3,CC(C)OC(=O)Nc1cccc(Cl)c1,CHLORPROPHAM,Chlorpropham,propan-2-yl (3-chlorophenyl)carbamate,28834,DTXSID7020764,CC(C)OC(=O)Nc1cccc(Cl)c1,"InChI=1S/C10H12ClNO2/c1-7(2)14-10(13)12-9-5-3-4-8(11)6-9/h3-7H,1-2H3,(H,12,13)",CWJSHJJYOPWUGX-UHFFFAOYSA-N,?,,41.0,101554