ChemID,source_casrn,CAS,SMILES,NAME,preferred_name,iupac,MPID,dsstox_substance_id,Canonical_QSARr,InChI_Code_QSARr,InChI Key_QSARr,Salt_Solvent,Salt_Solvent_ID,MP,ID
103668,,508-52-1,C[C@]12C[C@@H](O)[C@H]3[C@@H](CC[C@]4(O)C[C@@H](O)C[C@@H](O)[C@@]43CO)[C@@]1(O)CC[C@@H]2C1COC(=O)C=1,OUABAGENIN,,,30778,,CC12CC(O)C3C(CCC4(O)CC(O)CC(O)C43CO)C1(O)CCC2C1COC(=O)C=1,"InChI=1S/C23H34O8/c1-20-9-16(26)19-15(23(20,30)5-3-14(20)12-6-18(28)31-10-12)2-4-21(29)8-13(25)7-17(27)22(19,21)11-24/h6,13-17,19,24-27,29-30H,2-5,7-11H2,1H3",BXSABLKMKAINIU-UHFFFAOYSA-N,?,,236.5,103668
103674,509-14-8,509-14-8,[O-][N+](=O)C([N+]([O-])=O)([N+]([O-])=O)[N+]([O-])=O,TETRANITROMETHANE,Tetranitromethane,tetranitromethane,30782,DTXSID5021334,[O-][N+](=O)C([N+]([O-])=O)([N+]([O-])=O)[N+]([O-])=O,"InChI=1S/CN4O8/c6-2(7)1(3(8)9,4(10)11)5(12)13",NYTOUQBROMCLBJ-UHFFFAOYSA-N,?,,13.8,103674
103679,509-67-1,509-67-1,CN1CC[C@@]23[C@H]4C=C[C@H](O)[C@@H]2Oc2c3c(C[C@@H]14)ccc2OCCN1CCOCC1,PHOLCODINE,Pholcodine,,30786,DTXSID70198923,CN1CCC23C4C=CC(O)C2Oc2c3c(CC14)ccc2OCCN1CCOCC1,"InChI=1S/C23H30N2O4/c1-24-7-6-23-16-3-4-18(26)22(23)29-21-19(5-2-15(20(21)23)14-17(16)24)28-13-10-25-8-11-27-12-9-25/h2-5,16-18,22,26H,6-14H2,1H3",GPFAJKDEDBRFOS-UHFFFAOYSA-N,?,,91.0,103679
103683,509-93-3,509-93-3,C[C@H]1CC[C@@H]2C(OC(=O)C2=C)[C@@]2(C)[C@H]1C=CC2=O,AMBROSIN,,,30790,DTXSID60877831,CC1CCC2C(OC(=O)C2=C)C2(C)C1C=CC2=O,"InChI=1S/C15H18O3/c1-8-4-5-10-9(2)14(17)18-13(10)15(3)11(8)6-7-12(15)16/h6-8,10-11,13H,2,4-5H2,1,3H3",IFXGCKRDLITNAU-UHFFFAOYSA-N,?,,146.0,103683
103688,511-45-5,511-45-5,OC(CCN1CCCCC1)(c1ccccc1)c1ccccc1,PRIDINOL,Pridinol,"1,1-diphenyl-3-(piperidin-1-yl)propan-1-ol",30794,DTXSID0045090,OC(CCN1CCCCC1)(c1ccccc1)c1ccccc1,"InChI=1S/C20H25NO/c22-20(18-10-4-1-5-11-18,19-12-6-2-7-13-19)14-17-21-15-8-3-9-16-21/h1-2,4-7,10-13,22H,3,8-9,14-17H2",RQXCLMGKHJWMOA-UHFFFAOYSA-N,?,,120.5,103688
103692,512-16-3,NOCAS_862084,CCC(C(O)=O)C1(O)CCCCC1,Cyclobutyrol,,,30798,DTXSID00862084,CCC(C(O)=O)C1(O)CCCCC1,"InChI=1S/C10H18O3/c1-2-8(9(11)12)10(13)6-4-3-5-7-10/h8,13H,2-7H2,1H3,(H,11,12)",NIVFTEMPSCMWDE-UHFFFAOYSA-N,?,,81.5,103692
103698,513-12-2,513-12-2,CCS(=O)(=O)CCO,2-(Ethylsulfonyl)ethanol,2-(Ethylsulfonyl)ethanol,2-ethylsulfonylethanol,30802,DTXSID50199296,CCS(=O)(=O)CCO,"InChI=1S/C4H10O3S/c1-2-8(6,7)4-3-5/h5H,2-4H2,1H3",LJNDRJPZYNGSKZ-UHFFFAOYSA-N,?,,46.0,103698
103703,513-48-4,513-48-4,CCC(C)I,2-IODOBUTANE,2-Iodobutane,C4H9I,30806,DTXSID40858729,CCC(C)I,"InChI=1S/C4H9I/c1-3-4(2)5/h4H,3H2,1-2H3",IQRUSQUYPCHEKN-UHFFFAOYSA-N,?,,-104.0,103703
103707,513-86-0,513-86-0,CC(O)C(C)=O,ACETOIN,Acetoin,3-hydroxybutan-2-one,30810,DTXSID0024399,CC(O)C(C)=O,"InChI=1S/C4H8O2/c1-3(5)4(2)6/h3,5H,1-2H3",ROWKJAVDOGWPAT-UHFFFAOYSA-N,?,,15.0,103707
103711,514-17-0,4299-92-7,C[C@]12C[C@@H](O)[C@H]3[C@@H](CC[C@H]4C[C@H](O)CC[C@@]43C)[C@@H]1CCC2=O,"3,11-Dihydroxy-androstan-17-one",11-Hydroxyandrosterone,"(3R,5S,8S,9S,10S,11R,13S,14S)-3,11-dihydroxy-10,13-dimethyl-1,2,3,4,5,6,7,8,9,11,12,14,15,16-tetradecahydrocyclopenta[a]phenanthren-17-one",30814,DTXSID50195617,CC12CC(O)C3C(CCC4CC(O)CCC43C)C1CCC2=O,"InChI=1S/C19H30O3/c1-18-8-7-12(20)9-11(18)3-4-13-14-5-6-16(22)19(14,2)10-15(21)17(13)18/h11-15,17,20-21H,3-10H2,1-2H3",PIXFHVWJOVNKQK-UHFFFAOYSA-N,?,,235.0,103711
103717,515-59-3,515-59-3,Cc1c[s]c(NS(=O)(=O)c2ccc(N)cc2)[n]1,Sulfamethylthiazole,Sulfamethylthiazole,"4-amino-N-(4-methyl-1,3-thiazol-2-yl)benzenesulfonamide",30818,DTXSID80199481,Cc1c[s]c(NS(=O)(=O)c2ccc(N)cc2)[n]1,"InChI=1S/C10H11N3O2S2/c1-7-6-16-10(12-7)13-17(14,15)9-4-2-8(11)3-5-9/h2-6H,11H2,1H3,(H,12,13)",KJVQYDYPDFFJMP-UHFFFAOYSA-N,?,,237.0,103717
103721,516-12-1,516-12-1,O=C1CCC(=O)N1I,N-Iodosuccinimide,N-Iodosuccinimide,"1-Iodopyrrolidine-2,5-dione",30822,DTXSID10199550,O=C1CCC(=O)N1I,InChI=1S/C4H4INO2/c5-6-3(7)1-2-4(6)8/h1-2H2,LQZMLBORDGWNPD-UHFFFAOYSA-N,?,,204.0,103721
103728,516-85-8,NOCAS_871730,CC(C)[C@@H](C)/C=C/[C@@H](C)[C@H]1CC[C@H]2C3=CC=C4C[C@@H](O)CC[C@]4(C)C3=CC[C@@]21C,Dehydroergosterol,,,30829,DTXSID80871730,CC(C)C(C)C=CC(C)C1CCC2C3=CC=C4CC(O)CCC4(C)C3=CCC21C,"InChI=1S/C28H42O/c1-18(2)19(3)7-8-20(4)24-11-12-25-23-10-9-21-17-22(29)13-15-27(21,5)26(23)14-16-28(24,25)6/h7-10,14,18-20,22,24-25,29H,11-13,15-17H2,1-6H3/b8-7+",QSVJYFLQYMVBDR-BQYQJAHWSA-N,?,,146.0,103728
103733,517-22-6,517-22-6,CCc1c(C)c[nH]c1C,"1H-PYRROLE, 3-ETHYL-2,4-DIMETHYL-",Kryptopyrrole,"3-Ethyl-2,4-dimethyl-1H-pyrrole",30834,DTXSID20199647,CCc1c(C)c[nH]c1C,"InChI=1S/C8H13N/c1-4-8-6(2)5-9-7(8)3/h5,9H,4H2,1-3H3",ZEBBLOXDLGIMEG-UHFFFAOYSA-N,?,,0.0,103733
103737,518-20-7,NOCAS_862101,COC1(C)CC(C2C(=O)Oc3ccccc3C=2O1)c1ccccc1,Cyclocumarol,,,30837,DTXSID60862101,COC1(C)CC(C2C(=O)Oc3ccccc3C=2O1)c1ccccc1,"InChI=1S/C20H18O4/c1-20(22-2)12-15(13-8-4-3-5-9-13)17-18(24-20)14-10-6-7-11-16(14)23-19(17)21/h3-11,15H,12H2,1-2H3",ZGFASEKBKWVCGP-UHFFFAOYSA-N,?,,166.0,103737
103742,518-82-1,518-82-1,Cc1cc(O)c2c(c1)C(=O)c1cc(O)cc(O)c1C2=O,EMODIN,Emodin,"1,3,8-trihydroxy-6-methylanthracene-9,10-dione",30842,DTXSID5025231,Cc1cc(O)c2c(c1)C(=O)c1cc(O)cc(O)c1C2=O,"InChI=1S/C15H10O5/c1-6-2-8-12(10(17)3-6)15(20)13-9(14(8)19)4-7(16)5-11(13)18/h2-5,16-18H,1H3",RHMXXJGYXNZAPX-UHFFFAOYSA-N,?,,257.0,103742
103747,519-30-2,519-30-2,CN(C)CC[n]1c[n]c2c1C(=O)N(C)C(=O)N2C,Dimethazan,Dimethazan,"7-(2-dimethylaminoethyl)-1,3-dimethylpurine-2,6-dione",30846,DTXSID10199858,CN(C)CC[n]1c[n]c2c1C(=O)N(C)C(=O)N2C,"InChI=1S/C11H17N5O2/c1-13(2)5-6-16-7-12-9-8(16)10(17)15(4)11(18)14(9)3/h7H,5-6H2,1-4H3",CMKUGKVVUUGBHJ-UHFFFAOYSA-N,?,,95.0,103747
103751,519-73-3,519-73-3,c1ccccc1C(c1ccccc1)c1ccccc1,TRIPHENYLMETHANE,"Benzene, 1,1',1''-methylidynetris-",,30850,DTXSID3060164,c1ccccc1C(c1ccccc1)c1ccccc1,"InChI=1S/C19H16/c1-4-10-16(11-5-1)19(17-12-6-2-7-13-17)18-14-8-3-9-15-18/h1-15,19H",AAAQKTZKLRYKHR-UHFFFAOYSA-N,?,,94.0,103751
103755,520-03-6,520-03-6,O=C1c2ccccc2C(=O)N1c1ccccc1,"1H-ISOINDOLE-1,3(2H)-DIONE, 2-PHENYL-","1H-Isoindole-1,3(2H)-dione, 2-phenyl-","2-phenylisoindole-1,3-dione",30854,DTXSID3060166,O=C1c2ccccc2C(=O)N1c1ccccc1,InChI=1S/C14H9NO2/c16-13-11-8-4-5-9-12(11)14(17)15(13)10-6-2-1-3-7-10/h1-9H,MFUPLJQNEXUUDW-UHFFFAOYSA-N,?,,210.0,103755
103759,520-33-2,520-33-2,COc1ccc(cc1O)[C@@H]1CC(=O)c2c(cc(O)cc2O)O1,HESPERETINE,Hesperetin,"(2S)-5,7-dihydroxy-2-(3-hydroxy-4-methoxyphenyl)-2,3-dihydro-4H-chromen-4-one",30858,DTXSID4022319,COc1ccc(cc1O)C1CC(=O)c2c(cc(O)cc2O)O1,"InChI=1S/C16H14O6/c1-21-13-3-2-8(4-10(13)18)14-7-12(20)16-11(19)5-9(17)6-15(16)22-14/h2-6,14,17-19H,7H2,1H3",AIONOLUJZLIMTK-UHFFFAOYSA-N,?,,227.5,103759
103763,520-52-5,520-52-5,CN(C)CCc1c[nH]c2cccc(OP(O)(O)=O)c12,Psilocybin,Psilocybin,3-[2-(dimethylamino)ethyl]-1H-indol-4-yl dihydrogen phosphate,30862,DTXSID0048898,CN(C)CCc1c[nH]c2cccc(OP(O)(O)=O)c12,"InChI=1S/C12H17N2O4P/c1-14(2)7-6-9-8-13-10-4-3-5-11(12(9)10)18-19(15,16)17/h3-5,8,13H,6-7H2,1-2H3,(H2,15,16,17)",QVDSEJDULKLHCG-UHFFFAOYSA-N,?,,224.0,103763
103767,521-04-0,521-04-0,CC(C)[C@@H](CC[C@@H](C)[C@H]1CC[C@H]2C3=CC=C4C[C@@H](O)CC[C@]4(C)[C@H]3CC[C@@]21C)CC,7-Dehydrositosterol,7-Dehydrositosterol,"(3S,9S,10R,13R,14R,17R)-17-[(2R,5R)-5-ethyl-6-methylheptan-2-yl]-10,13-dimethyl-2,3,4,9,11,12,14,15,16,17-decahydro-1H-cyclopenta[a]phenanthren-3-ol",30866,DTXSID50200093,CC(C)C(CCC(C)C1CCC2C3=CC=C4CC(O)CCC4(C)C3CCC21C)CC,"InChI=1S/C29H48O/c1-7-21(19(2)3)9-8-20(4)25-12-13-26-24-11-10-22-18-23(30)14-16-28(22,5)27(24)15-17-29(25,26)6/h10-11,19-21,23,25-27,30H,7-9,12-18H2,1-6H3",ARVGMISWLZPBCH-UHFFFAOYSA-N,?,,144.5,103767
103771,521-18-6,521-18-6,C[C@]12CC[C@H]3[C@@H](CC[C@H]4CC(=O)CC[C@@]43C)[C@@H]1CC[C@@H]2O,"ANDROSTAN-3-ONE, 17-HYDROXY-, (5ALPHA,17BETA)-",5alpha-Dihydrotestosterone,"(5alpha,17beta)-17-hydroxyandrostan-3-one",30870,DTXSID9022364,CC12CCC3C(CCC4CC(=O)CCC43C)C1CCC2O,"InChI=1S/C19H30O2/c1-18-9-7-13(20)11-12(18)3-4-14-15-5-6-17(21)19(15,2)10-8-16(14)18/h12,14-17,21H,3-11H2,1-2H3",NVKAWKQGWWIWPM-UHFFFAOYSA-N,?,,181.0,103771
103775,522-00-9,522-00-9,CC(CN1c2ccccc2Sc2ccccc12)N(CC)CC,ETHOPROPAZINE,Ethopropazine,"N,N-diethyl-1-(10H-phenothiazin-10-yl)propan-2-amine",30874,DTXSID2023018,CC(CN1c2ccccc2Sc2ccccc12)N(CC)CC,"InChI=1S/C19H24N2S/c1-4-20(5-2)15(3)14-21-16-10-6-8-12-18(16)22-19-13-9-7-11-17(19)21/h6-13,15H,4-5,14H2,1-3H3",CDOZDBSBBXSXLB-UHFFFAOYSA-N,?,,64.5,103775
103785,523-88-6,523-88-6,Oc1ccc(Br)cc1C(=O)C(=O)c1cc(Br)ccc1O,Dibromsalicil,Dibromsalicil,"1,2-bis(5-bromo-2-hydroxyphenyl)ethane-1,2-dione",30881,DTXSID20200328,Oc1ccc(Br)cc1C(=O)C(=O)c1cc(Br)ccc1O,"InChI=1S/C14H8Br2O4/c15-7-1-3-11(17)9(5-7)13(19)14(20)10-6-8(16)2-4-12(10)18/h1-6,17-18H",AAOYLOCWJSLLJU-UHFFFAOYSA-N,?,,212.5,103785
103789,524-95-8,524-95-8,NCCOB(c1ccccc1)c1ccccc1,"Borinic acid, O-(2-aminoethyl)diphenyl-",2-Aminoethoxydiphenylborate,2-aminoethyl diphenylborinate,30885,DTXSID0040389,NCCOB(c1ccccc1)c1ccccc1,"InChI=1S/C14H16BNO/c16-11-12-17-15(13-7-3-1-4-8-13)14-9-5-2-6-10-14/h1-10H,11-12,16H2",BLZVCIGGICSWIG-UHFFFAOYSA-N,?,,193.0,103789
103794,525-79-1,525-79-1,C(Nc1:[nH]:c:[n]:c2:[n]:c:[n]:c-2:1)c1ccco1,Kinetin,Kinetin,N-(furan-2-ylmethyl)-1H-purin-6-amine,30889,DTXSID9035175,C(Nc1:[nH]:c:[n]:c2:[n]:c:[n]:c-2:1)c1ccco1,"InChI=1S/C10H9N5O/c1-2-7(16-3-1)4-11-9-8-10(13-5-12-8)15-6-14-9/h1-3,5-6H,4H2,(H2,11,12,13,14,15)",QANMHLXAZMSUEX-UHFFFAOYSA-N,?,,266.5,103794
103798,526-08-9,526-08-9,Nc1ccc(cc1)S(=O)(=O)Nc1cc[n][n]1-c1ccccc1,SULFAPHENAZOLE,Sulfaphenazole,4-amino-N-(1-phenyl-1H-pyrazol-5-yl)benzenesulfonamide,30893,DTXSID2044131,Nc1ccc(cc1)S(=O)(=O)Nc1cc[n][n]1-c1ccccc1,"InChI=1S/C15H14N4O2S/c16-12-6-8-14(9-7-12)22(20,21)18-15-10-11-17-19(15)13-4-2-1-3-5-13/h1-11,18H,16H2",QWCJHSGMANYXCW-UHFFFAOYSA-N,?,,181.0,103798
103802,526-55-6,526-55-6,OCCc1c[nH]c2ccccc21,1H-Indole-3-ethanol,1H-Indole-3-ethanol,2-(1H-indol-3-yl)ethanol,30897,DTXSID2060173,OCCc1c[nH]c2ccccc21,"InChI=1S/C10H11NO/c12-6-5-8-7-11-10-4-2-1-3-9(8)10/h1-4,7,11-12H,5-6H2",MBBOMCVGYCRMEA-UHFFFAOYSA-N,?,,59.0,103802
103806,526-85-2,NOCAS_865331,Cc1ccc(O)c(C)c1C,"Phenol, 2,3,4-trimethyl-",,,30900,DTXSID80865331,Cc1ccc(O)c(C)c1C,"InChI=1S/C9H12O/c1-6-4-5-9(10)8(3)7(6)2/h4-5,10H,1-3H3",XRUGBBIQLIVCSI-UHFFFAOYSA-N,?,,81.0,103806
103812,527-18-4,527-18-4,Cc1c(O)c(C)c(C)c(O)c1C,"1,4-Benzenediol, 2,3,5,6-tetramethyl-",Durohydroquinone,"2,3,5,6-tetramethylbenzene-1,4-diol",30904,DTXSID60200660,Cc1c(O)c(C)c(C)c(O)c1C,"InChI=1S/C10H14O2/c1-5-6(2)10(12)8(4)7(3)9(5)11/h11-12H,1-4H3",SUNVJLYYDZCIIK-UHFFFAOYSA-N,?,,233.0,103812
103817,527-53-7,527-53-7,Cc1cc(C)c(C)c(C)c1,"1,2,3,5-TETRAMETHYLBENZENE","1,2,3,5-Tetramethylbenzene","1,2,3,5-tetramethylbenzene",30908,DTXSID6026119,Cc1cc(C)c(C)c(C)c1,"InChI=1S/C10H14/c1-7-5-8(2)10(4)9(3)6-7/h5-6H,1-4H3",BFIMMTCNYPIMRN-UHFFFAOYSA-N,?,,-23.7,103817
103822,527-69-5,527-69-5,O=C(Cl)c1ccco1,2-Furancarbonyl chloride,2-Furancarbonyl chloride,furan-2-carbonyl chloride,30912,DTXSID7060176,O=C(Cl)c1ccco1,InChI=1S/C5H3ClO2/c6-5(7)4-2-1-3-8-4/h1-3H,OFTKFKYVSBNYEC-UHFFFAOYSA-N,?,,-2.0,103822
103830,528-44-9,528-44-9,OC(=O)c1ccc(cc1C(O)=O)C(O)=O,TRIMELLITIC ACID,"1,2,4-Benzenetricarboxylic acid","benzene-1,2,4-tricarboxylic acid",30919,DTXSID3021487,OC(=O)c1ccc(cc1C(O)=O)C(O)=O,"InChI=1S/C9H6O6/c10-7(11)4-1-2-5(8(12)13)6(3-4)9(14)15/h1-3H,(H,10,11)(H,12,13)(H,14,15)",ARCGXLSVLAOJQL-UHFFFAOYSA-N,?,,219.0,103830
103835,528-75-6,528-75-6,[O-][N+](=O)c1cc(ccc1C=O)[N+]([O-])=O,"2,4-Dinitrobenzaldehyde","2,4-Dinitrobenzaldehyde","2,4-Dinitrobenzaldehyde",30923,DTXSID30200778,[O-][N+](=O)c1cc(ccc1C=O)[N+]([O-])=O,InChI=1S/C7H4N2O5/c10-4-5-1-2-6(8(11)12)3-7(5)9(13)14/h1-4H,ZILXIZUBLXVYPI-UHFFFAOYSA-N,?,,72.0,103835
103839,529-08-8,529-08-8,CC(C)c1:c:c2-c(:c:1):c(C):c:c:c:c:2C,"2-Isopropyl-4,8-dimethyl-azulene","2-Isopropyl-4,8-dimethylazulene","4,8-dimethyl-2-propan-2-ylazulene",30927,DTXSID80200940,CC(C)c1:c:c2-c(:c:1):c(C):c:c:c:c:2C,"InChI=1S/C15H18/c1-10(2)13-8-14-11(3)6-5-7-12(4)15(14)9-13/h5-10H,1-4H3",APVKGMMYGFJZHY-UHFFFAOYSA-N,?,,32.3,103839
103843,529-35-1,529-35-1,Oc1cccc2CCCCc21,"1-NAPHTHALENOL, 5,6,7,8-TETRAHYDRO-","1-Naphthalenol, 5,6,7,8-tetrahydro-","5,6,7,8-TETRAHYDRONAPHTHALEN-1-OL",30931,DTXSID8074570,Oc1cccc2CCCCc21,"InChI=1S/C10H12O/c11-10-7-3-5-8-4-1-2-6-9(8)10/h3,5,7,11H,1-2,4,6H2",SCWNNOCLLOHZIG-UHFFFAOYSA-N,?,,70.0,103843
103847,529-84-0,529-84-0,CC1=CC(=O)Oc2cc(O)c(O)cc21,"6,7-Dihydroxy-4-methylcoumarin",4-Methylesculetin,"6,7-dihydroxy-4-methylchromen-2-one",30935,DTXSID6060187,CC1=CC(=O)Oc2cc(O)c(O)cc21,"InChI=1S/C10H8O4/c1-5-2-10(13)14-9-4-8(12)7(11)3-6(5)9/h2-4,11-12H,1H3",KVOJTUXGYQVLAJ-UHFFFAOYSA-N,?,,275.0,103847
103851,530-48-3,530-48-3,C=C(c1ccccc1)c1ccccc1,"1,1-DIPHENYLETHYLENE","Benzene, 1,1'-ethenylidenebis-",1-phenylethenylbenzene,30939,DTXSID5060190,C=C(c1ccccc1)c1ccccc1,"InChI=1S/C14H12/c1-12(13-8-4-2-5-9-13)14-10-6-3-7-11-14/h2-11H,1H2",ZMYIIHDQURVDRB-UHFFFAOYSA-N,?,,8.2,103851
103855,530-62-1,530-62-1,O=C([n]1c[n]cc1)[n]1c[n]cc1,"1H-Imidazole, 1,1'-carbonylbis-","1,1'-Carbonylbis(1H-imidazole)",di-1H-imidazol-1-ylmethanone,30943,DTXSID9038761,O=C([n]1c[n]cc1)[n]1c[n]cc1,InChI=1S/C7H6N4O/c12-7(10-3-1-8-5-10)11-4-2-9-6-11/h1-6H,PFKFTWBEEFSNDU-UHFFFAOYSA-N,?,,119.0,103855
103859,530-93-8,530-93-8,O=C1Cc2ccccc2CC1,"2(1H)-Naphthalenone, 3,4-dihydro-",2-Tetralone,"3,4-dihydro-1H-naphthalen-2-one",30947,DTXSID0060193,O=C1Cc2ccccc2CC1,"InChI=1S/C10H10O/c11-10-6-5-8-3-1-2-4-9(8)7-10/h1-4H,5-7H2",KCKZIWSINLBROE-UHFFFAOYSA-N,?,,18.0,103859
103863,531-91-9,531-91-9,c1cc(ccc1Nc1ccccc1)-c1ccc(cc1)Nc1ccccc1,"1,1'-Biphenyl -4,4'-diamine, N,N'-diphenyl-","[1,1'-Biphenyl]-4,4'-diamine, N,N'-diphenyl-",N-phenyl-4-[4-(phenylamino)phenyl]aniline,30951,DTXSID0060197,c1cc(ccc1Nc1ccccc1)-c1ccc(cc1)Nc1ccccc1,"InChI=1S/C24H20N2/c1-3-7-21(8-4-1)25-23-15-11-19(12-16-23)20-13-17-24(18-14-20)26-22-9-5-2-6-10-22/h1-18,25-26H",FDRNXKXKFNHNCA-UHFFFAOYSA-N,?,,247.0,103863
103867,532-18-3,532-18-3,c1c(ccc2ccccc21)Nc1cc2ccccc2cc1,"b,b'-Dinaphthylamine","beta,beta'-Dinaphthylamine",N-naphthalen-2-ylnaphthalen-2-amine,30955,DTXSID80201255,c1c(ccc2ccccc21)Nc1cc2ccccc2cc1,"InChI=1S/C20H15N/c1-3-7-17-13-19(11-9-15(17)5-1)21-20-12-10-16-6-2-4-8-18(16)14-20/h1-14,21H",SBMXAWJSNIAHFR-UHFFFAOYSA-N,?,,172.2,103867
103871,532-54-7,532-54-7,ON=CC(=O)c1ccccc1,Isonitrosoacetophenone,Isonitrosoacetophenone,,30959,DTXSID5060198,O=C(CN=O)c1ccccc1,"InChI=1S/C8H7NO2/c10-8(6-9-11)7-4-2-1-3-5-7/h1-5H,6H2",FYMROLWPUWRMPR-UHFFFAOYSA-N,?,,129.0,103871
103875,533-17-5,533-17-5,CC(=O)Nc1ccccc1Cl,2-CHLOROACETANILIDE,"Acetamide, N-(2-chlorophenyl)-",N-(2-Chlorophenyl)acetamide,30963,DTXSID2060200,CC(=O)Nc1ccccc1Cl,"InChI=1S/C8H8ClNO/c1-6(11)10-8-5-3-2-4-7(8)9/h2-5H,1H3,(H,10,11)",KNVQTRVKSOEHPU-UHFFFAOYSA-N,?,,89.0,103875
103879,533-58-4,533-58-4,Oc1ccccc1I,2-IODOPHENOL,2-Iodophenol,2-iodophenol,30967,DTXSID5052175,Oc1ccccc1I,"InChI=1S/C6H5IO/c7-5-3-1-2-4-6(5)8/h1-4,8H",KQDJTBPASNJQFQ-UHFFFAOYSA-N,?,,43.0,103879
103883,533-75-5,533-75-5,OC1=CC=CC=CC1=O,TROPOLONE,Tropolone,"2-hydroxycyclohepta-2,4,6-trien-1-one",30971,DTXSID8049416,OC1=CC=CC=CC1=O,"InChI=1S/C7H6O2/c8-6-4-2-1-3-5-7(6)9/h1-5H,(H,8,9)",MDYOLVRUBBJPFM-UHFFFAOYSA-N,?,,50.8,103883
103887,534-13-4,534-13-4,CNC(=S)NC,"N,N-DIMETHYLTHIOUREA","N,N'-Dimethylthiourea","1,3-dimethylthiourea",30975,DTXSID2042191,CNC(=S)NC,"InChI=1S/C3H8N2S/c1-4-3(6)5-2/h1-2H3,(H2,4,5,6)",VLCDUOXHFNUCKK-UHFFFAOYSA-N,?,,62.0,103887
103891,534-52-1,534-52-1,Cc1cc(cc(c1O)[N+]([O-])=O)[N+]([O-])=O,"4,6-DINITRO-O-CRESOL","2-Methyl-4,6-dinitrophenol","2-methyl-4,6-dinitrophenol",30979,DTXSID1022053,Cc1cc(cc(c1O)[N+]([O-])=O)[N+]([O-])=O,"InChI=1S/C7H6N2O5/c1-4-2-5(8(11)12)3-6(7(4)10)9(13)14/h2-3,10H,1H3",ZXVONLUNISGICL-UHFFFAOYSA-N,?,,86.6,103891
103897,535-77-3,535-77-3,Cc1cccc(c1)C(C)C,M-CYMENE,m-Cymene,1-methyl-3-propan-2-ylbenzene,30983,DTXSID2060206,Cc1cccc(c1)C(C)C,"InChI=1S/C10H14/c1-8(2)10-6-4-5-9(3)7-10/h4-8H,1-3H3",XCYJPXQACVEIOS-UHFFFAOYSA-N,?,,-63.7,103897
103901,536-25-4,536-25-4,COC(=O)c1ccc(O)c(N)c1,"Benzoic acid, 3-amino-4-hydroxy-, methyl ester","Benzoic acid, 3-amino-4-hydroxy-, methyl ester",Methyl 3-amino-4-hydroxybenzoate,30987,DTXSID2060208,COC(=O)c1ccc(O)c(N)c1,"InChI=1S/C8H9NO3/c1-12-8(11)5-2-3-7(10)6(9)4-5/h2-4,10H,9H2,1H3",VNQABZCSYCTZMS-UHFFFAOYSA-N,?,,143.0,103901
103905,536-40-3,536-40-3,NNC(=O)c1ccc(Cl)cc1,"BENZOYLHYDRAZINE, P-CHLORO",4-Chlorobenzohydrazide,4-Chlorobenzohydrazide,30991,DTXSID40201817,NNC(=O)c1ccc(Cl)cc1,"InChI=1S/C7H7ClN2O/c8-6-3-1-5(2-4-6)7(11)10-9/h1-4H,9H2,(H,10,11)",PKBGHORNUFQAAW-UHFFFAOYSA-N,?,,164.0,103905
103909,536-69-6,536-69-6,CCCCc1ccc([n]c1)C(O)=O,"2-Pyridinecarboxylic acid, 5-butyl-",Fusaric acid,5-butylpyridine-2-carboxylic acid,30995,DTXSID5023085,CCCCc1ccc([n]c1)C(O)=O,"InChI=1S/C10H13NO2/c1-2-3-4-8-5-6-9(10(12)13)11-7-8/h5-7H,2-4H2,1H3,(H,12,13)",DGMPVYSXXIOGJY-UHFFFAOYSA-N,?,,97.0,103909
103913,536-90-3,536-90-3,COc1cccc(N)c1,M-METHOXYANILINE,3-Methoxyaniline,3-methoxyaniline,30999,DTXSID8024529,COc1cccc(N)c1,"InChI=1S/C7H9NO/c1-9-7-4-2-3-6(8)5-7/h2-5H,8H2,1H3",NCBZRJODKRCREW-UHFFFAOYSA-N,?,,-1.0,103913
103917,537-45-1,537-45-1,O=C1C(Br)=CC(C=C1Br)=NCl,"2,6-DIBROMOQUINONECHLOROIMIDE","2,5-Cyclohexadien-1-one, 2,6-dibromo-4-(chloroimino)-","2,6-dibromo-4-chloroiminocyclohexa-2,5-dien-1-one",31003,DTXSID1060215,O=C1C(Br)=CC(C=C1Br)=NCl,InChI=1S/C6H2Br2ClNO/c7-4-1-3(10-9)2-5(8)6(4)11/h1-2H,JYWKEVKEKOTYEX-UHFFFAOYSA-N,?,,83.0,103917
103922,537-91-7,537-91-7,[O-][N+](=O)c1cc(ccc1)SSc1cc(ccc1)[N+]([O-])=O,"DISULFIDE, BIS(3-NITROPHENYL)","Disulfide, bis(3-nitrophenyl)",N-hydroxy-3-[3-(hydroxy-oxidoazaniumyl)phenyl]disulfanylbenzeneamine oxide,31007,DTXSID1060219,[O-][N+](=O)c1cc(ccc1)SSc1cc(ccc1)[N+]([O-])=O,InChI=1S/C12H8N2O4S2/c15-13(16)9-3-1-5-11(7-9)19-20-12-6-2-4-10(8-12)14(17)18/h1-8H,ODOFDWDUSSFUMN-UHFFFAOYSA-N,?,,84.0,103922
103926,538-28-3,538-28-3,Cl.NC(=N)SCc1ccccc1,S-Benzylthiuronium Chloride,"Carbamimidothioic acid, phenylmethyl ester, monohydrochloride",,31011,DTXSID0060222,NC(=N)SCc1ccccc1,"InChI=1S/C8H10N2S/c9-8(10)11-6-7-4-2-1-3-5-7/h1-5H,6H2,(H3,9,10)",GTRLQRHWPXEBLF-UHFFFAOYSA-N,Cl,18179.0,173.0,103926
103931,538-44-3,NOCAS_870598,CC(C)(C)C(=O)C=Cc1ccccc1,"4,4-Dimethyl-1-phenyl-pent-1-en-3-one",,,31015,DTXSID50870598,CC(C)(C)C(=O)C=Cc1ccccc1,"InChI=1S/C13H16O/c1-13(2,3)12(14)10-9-11-7-5-4-6-8-11/h4-10H,1-3H3/b10-9+",YHFHIZDYJXYXOJ-MDZDMXLPSA-N,?,,43.0,103931
103936,538-75-0,538-75-0,C1CCCCC1N=C=NC1CCCCC1,"Cyclohexanamine, N,N'-methanetetraylbis-",Dicyclohexylcarbodiimide,"N,N'-dicyclohexylcarbodiimide",31019,DTXSID1023817,C1CCCCC1N=C=NC1CCCCC1,"InChI=1S/C13H22N2/c1-3-7-12(8-4-1)14-11-15-13-9-5-2-6-10-13/h12-13H,1-10H2",QOSSAOTZNIDXMA-UHFFFAOYSA-N,?,,34.5,103936
103941,539-15-1,539-15-1,CN(C)CCc1ccc(O)cc1,Hordenine,Hordenine,4-[2-(dimethylamino)ethyl]phenol,31023,DTXSID2046096,CN(C)CCc1ccc(O)cc1,"InChI=1S/C10H15NO/c1-11(2)8-7-9-3-5-10(12)6-4-9/h3-6,12H,7-8H2,1-2H3",KUBCEEMXQZUPDQ-UHFFFAOYSA-N,?,,117.5,103941
103945,539-82-2,539-82-2,CCCCC(=O)OCC,ETHYL VALERATE,Ethyl valerate,ethyl pentanoate,31027,DTXSID6040161,CCCCC(=O)OCC,"InChI=1S/C7H14O2/c1-3-5-6-7(8)9-4-2/h3-6H2,1-2H3",ICMAFTSLXCXHRK-UHFFFAOYSA-N,?,,-91.2,103945
103949,540-10-3,540-10-3,CCCCCCCCCCCCCCCC(=O)OCCCCCCCCCCCCCCCC,"Hexadecanoic acid, hexadecyl ester",Palmityl palmitate,hexadecyl hexadecanoate,31031,DTXSID5047114,CCCCCCCCCCCCCCCC(=O)OCCCCCCCCCCCCCCCC,"InChI=1S/C32H64O2/c1-3-5-7-9-11-13-15-17-19-21-23-25-27-29-31-34-32(33)30-28-26-24-22-20-18-16-14-12-10-8-6-4-2/h3-31H2,1-2H3",PXDJXZJSCPSGGI-UHFFFAOYSA-N,?,,54.0,103949
103953,540-38-5,540-38-5,Oc1ccc(I)cc1,4-IODOPHENOL,4-Iodophenol,4-iodophenol,31035,DTXSID4052186,Oc1ccc(I)cc1,"InChI=1S/C6H5IO/c7-5-1-3-6(8)4-2-5/h1-4,8H",VSMDINRNYYEDRN-UHFFFAOYSA-N,?,,93.5,103953
103957,540-54-5,540-54-5,CCCCl,1-CHLOROPROPANE,1-Chloropropane,1-chloropropane,31039,DTXSID3051462,CCCCl,"InChI=1S/C3H7Cl/c1-2-3-4/h2-3H2,1H3",SNMVRZFUUCLYTO-UHFFFAOYSA-N,?,,-122.8,103957
103961,540-67-0,540-67-0,CCOC,ETHYL METHYL ETHER,"Ethane, methoxy-",Methoxyethane,31043,DTXSID5074557,CCOC,"InChI=1S/C3H8O/c1-3-4-2/h3H2,1-2H3",XOBKSJJDNFUZPF-UHFFFAOYSA-N,?,,-113.0,103961