ChemID,source_casrn,CAS,SMILES,NAME,preferred_name,iupac,MPID,dsstox_substance_id,Canonical_QSARr,InChI_Code_QSARr,InChI Key_QSARr,Salt_Solvent,BP,ID
103744,1185-55-3,1185-55-3,C[Si](OC)(OC)OC,Methyltrimethoxysilane,Trimethoxymethylsilane,trimethoxy(methyl)silane,22688,DTXSID3027370,C[Si](OC)(OC)OC,"InChI=1S/C4H12O3Si/c1-5-8(4,6-2)7-3/h1-4H3",BFXIKLCIZHOAAZ-UHFFFAOYSA-N,?,102.5,103744
103745,1186-53-4,NOCAS_870854,CC(C)C(C)C(C)(C)C,"2,2,3,4-TETRAMETHYLPENTANE",,,22689,DTXSID30870854,CC(C)C(C)C(C)(C)C,"InChI=1S/C9H20/c1-7(2)8(3)9(4,5)6/h7-8H,1-6H3",VZFMYOCAEQDWDY-UHFFFAOYSA-N,?,133.0,103745
103746,1187-03-7,1187-03-7,CCN(CC)C(=O)N(CC)CC,"UREA, TETRAETHYL-",Tetraethylurea,"1,1,3,3-tetraethylurea",22690,DTXSID5044522,CCN(CC)C(=O)N(CC)CC,"InChI=1S/C9H20N2O/c1-5-10(6-2)9(12)11(7-3)8-4/h5-8H2,1-4H3",UWHSPZZUAYSGTB-UHFFFAOYSA-N,?,209.0,103746
103748,1188-33-6,1188-33-6,CN(C)C(OCC)OCC,"Methanamine, 1,1-diethoxy-N,N-dimethyl-","Methanamine, 1,1-diethoxy-N,N-dimethyl-","1,1-Diethoxy-N,N-dimethylmethanamine",22692,DTXSID5061584,CN(C)C(OCC)OCC,"InChI=1S/C7H17NO2/c1-5-9-7(8(3)4)10-6-2/h7H,5-6H2,1-4H3",BWKAYBPLDRWMCJ-UHFFFAOYSA-N,?,129.0,103748
103749,1189-71-5,1189-71-5,O=C=NS(=O)(=O)Cl,Sulfuryl chloride isocyanate,Sulfuryl chloride isocyanate,N-(oxomethylidene)sulfamoyl chloride,22693,DTXSID0061585,O=C=NS(=O)(=O)Cl,"InChI=1S/CClNO3S/c2-7(5,6)3-1-4",WRJWRGBVPUUDLA-UHFFFAOYSA-N,?,107.0,103749
103750,1189-99-7,1189-99-7,CCC(C)(C)CCC(C)C,"HEPTANE, 2,5,5-TRIMETHYL-","Heptane, 2,5,5-trimethyl-","2,5,5-TRIMETHYLHEPTANE",22694,DTXSID50152260,CCC(C)(C)CCC(C)C,"InChI=1S/C10H22/c1-6-10(4,5)8-7-9(2)3/h9H,6-8H2,1-5H3",SOYLPZSOEXZMLE-UHFFFAOYSA-N,?,152.8,103750
103752,1190-39-2,1190-39-2,CCCCOC(=O)CC(=O)OCCCC,"PROPANEDIOIC ACID, DIBUTYL ESTER","Propanedioic acid, dibutyl ester",dibutyl propanedioate,22696,DTXSID30152288,CCCCOC(=O)CC(=O)OCCCC,"InChI=1S/C11H20O4/c1-3-5-7-14-10(12)9-11(13)15-8-6-4-2/h3-9H2,1-2H3",NFKGQHYUYGYHIS-UHFFFAOYSA-N,?,251.5,103752
103753,1190-83-6,NOCAS_870856,CC(C)CCCC(C)(C)C,"2,2,6-TRIMETHYLHEPTANE",,,22697,DTXSID50870856,CC(C)CCCC(C)(C)C,"InChI=1S/C10H22/c1-9(2)7-6-8-10(3,4)5/h9H,6-8H2,1-5H3",FHJCGIUZJXWNET-UHFFFAOYSA-N,?,148.9,103753
103754,1191-04-4,1191-04-4,CCCC=CC(O)=O,2-Hexenoic acid,2-Hexenoic acid,,22698,DTXSID5061588,CCCC=CC(O)=O,"InChI=1S/C6H10O2/c1-2-3-4-5-6(7)8/h4-5H,2-3H2,1H3,(H,7,8)/b5-4+",NIONDZDPPYHYKY-SNAWJCMRSA-N,?,216.5,103754
103756,1191-62-4,1191-62-4,SCCCCCCCCS,"Octane-1,8-dithiol","1,8-Octanedithiol","octane-1,8-dithiol",22700,DTXSID8047474,SCCCCCCCCS,"InChI=1S/C8H18S2/c9-7-5-3-1-2-4-6-8-10/h9-10H,1-8H2",PGTWZHXOSWQKCY-UHFFFAOYSA-N,?,269.5,103756
103757,1191-95-3,1191-95-3,O=C1CCC1,CYCLOBUTANONE,Cyclobutanone,CYCLOBUTANONE,22701,DTXSID9061592,O=C1CCC1,InChI=1S/C4H6O/c5-4-2-1-3-4/h1-3H2,SHQSVMDWKBRBGB-UHFFFAOYSA-N,?,99.0,103757
103758,1191-96-4,1191-96-4,CCC1CC1,"Cyclopropane, ethyl-","Cyclopropane, ethyl-",Ethylcyclopropane,22702,DTXSID4061593,CCC1CC1,"InChI=1S/C5H10/c1-2-5-3-4-5/h5H,2-4H2,1H3",FOTXAJDDGPYIFU-UHFFFAOYSA-N,?,35.9,103758
103761,1192-28-5,1192-28-5,ON=C1CCCC1,"Cyclopentanone, oxime",Cyclopentanone oxime,N-hydroxycyclopentanimine,22704,DTXSID0020363,O=NC1CCCC1,"InChI=1S/C5H9NO/c7-6-5-3-1-2-4-5/h5H,1-4H2",VGUWNAQRECZTED-UHFFFAOYSA-N,?,196.0,103761
103762,1192-30-9,57203-03-9,BrC[C@@H]1CCCO1,"Furan, 2-(bromomethyl)tetrahydro-","Furan, 2-(bromomethyl)tetrahydro-, (S)-",C5H9BrO,22705,DTXSID50426135,BrCC1CCCO1,"InChI=1S/C5H9BrO/c6-4-5-2-1-3-7-5/h5H,1-4H2",VOHILFSOWRNVJJ-UHFFFAOYSA-N,?,170.0,103762
103763,1192-37-6,1192-37-6,C=C1CCCCC1,METHYLENE CYCLOHEXANE,"Cyclohexane, methylene-",methylidenecyclohexane,22706,DTXSID4061595,C=C1CCCCC1,InChI=1S/C7H12/c1-7-5-3-2-4-6-7/h1-6H2,YULMNMJFAZWLLN-UHFFFAOYSA-N,?,102.5,103763
103765,1193-12-0,1193-12-0,CC1(C)CNCCC1,"3,3-Dimethylpiperidine","3,3-Dimethylpiperidine","3,3-Dimethylpiperidine",22708,DTXSID50152402,CC1(C)CNCCC1,"InChI=1S/C7H15N/c1-7(2)4-3-5-8-6-7/h8H,3-6H2,1-2H3",CDODDZJCEADUQQ-UHFFFAOYSA-N,?,137.0,103765
103766,1193-18-6,1193-18-6,CC1CCCC(=O)C=1,"2-Cyclohexen-1-one, 3-methyl-",3-Methyl-2-cyclohexen-1-one,3-methylcyclohex-2-en-1-one,22709,DTXSID8035186,CC1CCCC(=O)C=1,"InChI=1S/C7H10O/c1-6-3-2-4-7(8)5-6/h5H,2-4H2,1H3",IITQJMYAYSNIMI-UHFFFAOYSA-N,?,201.0,103766
103767,1193-46-0,NOCAS_870858,CC1(C)CCCCC1O,"CYCLOHEXANOL, 2,2-DIMETHYL-",,,22710,DTXSID70870858,CC1(C)CCCCC1O,"InChI=1S/C8H16O/c1-8(2)6-4-3-5-7(8)9/h7,9H,3-6H2,1-2H3",BYBYZPFVXFPCND-UHFFFAOYSA-N,?,177.0,103767
103769,1193-72-2,1193-72-2,Clc1cc(Cl)c(Br)cc1,"1-Bromo-2,4-dichlorobenzene","1-Bromo-2,4-dichlorobenzene","1-Bromo-2,4-dichlorobenzene",22712,DTXSID10152408,Clc1cc(Cl)c(Br)cc1,InChI=1S/C6H3BrCl2/c7-5-2-1-4(8)3-6(5)9/h1-3H,ISHYFWKKWKXXPL-UHFFFAOYSA-N,?,235.0,103769
103770,1193-81-3,1193-81-3,CC(O)C1CCCCC1,"Cyclohexanemethanol, .alpha.-methyl-",1-Cyclohexylethanol,1-cyclohexylethanol,22713,DTXSID7047643,CC(O)C1CCCCC1,"InChI=1S/C8H16O/c1-7(9)8-5-3-2-4-6-8/h7-9H,2-6H2,1H3",JMSUNAQVHOHLMX-UHFFFAOYSA-N,?,189.0,103770
103771,1193-82-4,18453-46-8,C[S@](=O)c1ccccc1,METHYL PHENYL SULFOXIDE,"Benzene, [(S)-methylsulfinyl]-",C7H8OS,22714,DTXSID70452895,CS(=O)c1ccccc1,"InChI=1S/C7H8OS/c1-9(8)7-5-3-2-4-6-7/h2-6H,1H3",JXTGICXCHWMCPM-UHFFFAOYSA-N,?,263.5,103771
103773,1194-65-6,1194-65-6,N#Cc1c(Cl)cccc1Cl,"2,6-DICHLOROBENZONITRILE",Dichlobenil,"2,6-dichlorobenzonitrile",22716,DTXSID5032365,N#Cc1c(Cl)cccc1Cl,InChI=1S/C7H3Cl2N/c8-6-2-1-3-7(9)5(6)4-10/h1-3H,YOYAIZYFCNQIRF-UHFFFAOYSA-N,?,270.0,103773
103774,1195-31-9|5502-88-5,499-94-5,CC(C)[C@@H]1CC=C(C)CC1,"CYCLOHEXENE, 1-METHYL-4-(1-METHYLETHYL)-, (R)-, Cyclohexene, 1-methyl-4-(1-methylethyl)-",Menthene,C10H18,22717|23820,DTXSID70473388,CC(C)C1CC=C(C)CC1,"InChI=1S/C10H18/c1-8(2)10-6-4-9(3)5-7-10/h4,8,10H,5-7H2,1-3H3",FAMJUFMHYAFYNU-UHFFFAOYSA-N,?,173.75,103774
103775,1195-32-0,1195-32-0,Cc1ccc(cc1)C(C)=C,"Benzene, 1-methyl-4-(1-methylethenyl)-",1-Methyl-4-(prop-1-en-2-yl)benzene,1-methyl-4-(prop-1-en-2-yl)benzene,22718,DTXSID7047564,Cc1ccc(cc1)C(C)=C,"InChI=1S/C10H12/c1-8(2)10-6-4-9(3)5-7-10/h4-7H,1H2,2-3H3",MMSLOZQEMPDGPI-UHFFFAOYSA-N,?,185.3,103775
103778,1196-58-3,1196-58-3,CCC(CC)c1ccccc1,"BENZENE, (1-ETHYLPROPYL)-","Benzene, (1-ethylpropyl)- (8CI)(9CI)",pentan-3-ylbenzene,22720,DTXSID70152520,CCC(CC)c1ccccc1,"InChI=1S/C11H16/c1-3-10(4-2)11-8-6-5-7-9-11/h5-10H,3-4H2,1-2H3",PBWHJRFXUPLZDS-UHFFFAOYSA-N,?,187.5,103778
103779,1197-19-9,1197-19-9,CN(C)c1ccc(cc1)C#N,"P-CYANO-N,N-DIMETHYLANILINE","Benzonitrile, 4-(dimethylamino)-",4-Dimethylaminobenzonitrile,22721,DTXSID4073255,CN(C)c1ccc(cc1)C#N,"InChI=1S/C9H10N2/c1-11(2)9-5-3-8(7-10)4-6-9/h3-6H,1-2H3",JYMNQRQQBJIMCV-UHFFFAOYSA-N,?,318.0,103779
103780,1197-37-1,1197-37-1,CCOc1cc(N)c(N)cc1,"1,2-Benzenediamine, 4-ethoxy-","1,2-Benzenediamine, 4-ethoxy-","4-Ethoxybenzene-1,2-diamine",22722,DTXSID6061608,CCOc1cc(N)c(N)cc1,"InChI=1S/C8H12N2O/c1-2-11-6-3-4-7(9)8(10)5-6/h3-5H,2,9-10H2,1H3",KLLREYQZEOLXHA-UHFFFAOYSA-N,?,295.0,103780
103782,1200-73-3,NOCAS_870865,CC1(CCOCO1)c1ccccc1,"4-Methyl-4-phenyl-[1,3]dioxane",,,22724,DTXSID40870865,CC1(CCOCO1)c1ccccc1,"InChI=1S/C11H14O2/c1-11(7-8-12-9-13-11)10-5-3-2-4-6-10/h2-6H,7-9H2,1H3",UWMUVCPSXOGVND-UHFFFAOYSA-N,?,256.0,103782
103783,1202-08-0,1202-08-0,Cc1ccc(cc1C(C)=O)C(C)C,2-Acetyl-4-isopropyltoluene,5'-Isopropyl-2'-methylacetophenone,1-(2-methyl-5-propan-2-ylphenyl)ethanone,22725,DTXSID1074468,Cc1ccc(cc1C(C)=O)C(C)C,"InChI=1S/C12H16O/c1-8(2)11-6-5-9(3)12(7-11)10(4)13/h5-8H,1-4H3",LVNVQCXLRILPCM-UHFFFAOYSA-N,?,249.5,103783
103784,1202-32-0,1202-32-0,CC/C(=C\c1ccccc1)/[N+]([O-])=O,B-ETHYL-B-NITROSTYRENE,1202-32-0,C10H11NO2,22726,DTXSID90417885,CCC(=Cc1ccccc1)[N+]([O-])=O,"InChI=1S/C10H11NO2/c1-2-10(11(12)13)8-9-6-4-3-5-7-9/h3-8H,2H2,1H3/b10-8+",ZWVYQTKQQAYACO-CSKARUKUSA-N,?,307.5,103784
103786,1205-64-7,1205-64-7,Cc1cc(ccc1)Nc1ccccc1,3-METHYL DIPHENYL AMINE,3-Methyl-N-phenylaniline,3-methyl-N-phenylaniline,22728,DTXSID9044790,Cc1cc(ccc1)Nc1ccccc1,"InChI=1S/C13H13N/c1-11-6-5-9-13(10-11)14-12-7-3-2-4-8-12/h2-10,14H,1H3",TWPMMLHBHPYSMT-UHFFFAOYSA-N,?,316.0,103786
103788,1222-05-5,1222-05-5,CC1(C)C(C)C(C)(C)c2cc3COCC(C)c3cc12,Galaxolide,"Cyclopenta[g]-2-benzopyran, 1,3,4,6,7,8-hexahydro-4,6,6,7,8,8-hexamethyl-","4,6,6,7,8,8-hexamethyl-1,3,4,6,7,8-hexahydrocyclopenta[g]isochromene",22729,DTXSID8027373,CC1(C)C(C)C(C)(C)c2cc3COCC(C)c3cc12,"InChI=1S/C18H26O/c1-11-9-19-10-13-7-15-16(8-14(11)13)18(5,6)12(2)17(15,3)4/h7-8,11-12H,9-10H2,1-6H3",ONKNPOPIGWHAQC-UHFFFAOYSA-N,?,325.0,103788
103789,1241-94-7,1241-94-7,CCC(COP(=O)(Oc1ccccc1)Oc1ccccc1)CCCC,2-ETHYLHEXYL DIPHENYL PHOSPHATE,2-Ethylhexyl diphenyl phosphate,2-ethylhexyl diphenyl phosphate,22730,DTXSID1025300,CCC(COP(=O)(Oc1ccccc1)Oc1ccccc1)CCCC,"InChI=1S/C20H27O4P/c1-3-5-12-18(4-2)17-22-25(21,23-19-13-8-6-9-14-19)24-20-15-10-7-11-16-20/h6-11,13-16,18H,3-5,12,17H2,1-2H3",CGSLYBDCEGBZCG-UHFFFAOYSA-N,?,375.0,103789
103798,1330-96-7,1330-96-7,CCCCCCCCOC(=O)c1ccccc1C(=O)OCCCCCCCC(C)C,ISODECYLOCTYLPHTHALATE,"1,2-Benzenedicarboxylic acid, isodecyl octyl ester","O1-(8-methylnonyl) O2-octyl benzene-1,2-dicarboxylate",22732,DTXSID9061675,CCCCCCCCOC(=O)c1ccccc1C(=O)OCCCCCCCC(C)C,"InChI=1S/C26H42O4/c1-4-5-6-7-10-15-20-29-25(27)23-18-13-14-19-24(23)26(28)30-21-16-11-8-9-12-17-22(2)3/h13-14,18-19,22H,4-12,15-17,20-21H2,1-3H3",UXLBXTIBYMXRNX-UHFFFAOYSA-N,?,447.0,103798
103803,1421-89-2,1421-89-2,CC(=O)OCCN(C)C,"Acetic acid, 2-(dimethylamino)ethyl ester","Acetic acid, 2-(dimethylamino)ethyl ester",2-Dimethylaminoethyl acetate,22734,DTXSID8061684,CC(=O)OCCN(C)C,"InChI=1S/C6H13NO2/c1-6(8)9-5-4-7(2)3/h4-5H2,1-3H3",GOLSFPMYASLXJC-UHFFFAOYSA-N,?,152.0,103803
103804,1423-60-5,1423-60-5,CC(=O)C#C,3-BUTYN-2-ONE,3-Butyn-2-one,But-3-yn-2-one,22735,DTXSID3074521,CC(=O)C#C,"InChI=1S/C4H4O/c1-3-4(2)5/h1H,2H3",XRGPFNGLRSIPSA-UHFFFAOYSA-N,?,84.0,103804
103806,1444-64-0,1444-64-0,OC1CCCCC1c1ccccc1,"Cyclohexanol, 2-phenyl-",2-Phenylcyclohexanol,2-phenylcyclohexanol,22737,DTXSID4041446,OC1CCCCC1c1ccccc1,"InChI=1S/C12H16O/c13-12-9-5-4-8-11(12)10-6-2-1-3-7-10/h1-3,6-7,11-13H,4-5,8-9H2",AAIBYZBZXNWTPP-UHFFFAOYSA-N,?,228.0,103806
103807,1445-23-4,1445-23-4,Cc1cc(c(O)cc1C)C(C)(C)C,"3,4-Dimethyl-6-tert-butylphenol","3,4-Xylenol, 6-tert-butyl-","2-tert-butyl-4,5-dimethylphenol",22738,DTXSID00162733,Cc1cc(c(O)cc1C)C(C)(C)C,"InChI=1S/C12H18O/c1-8-6-10(12(3,4)5)11(13)7-9(8)2/h6-7,13H,1-5H3",GDGFDAKCWRGGHW-UHFFFAOYSA-N,?,258.5,103807
103808,1445-45-0,1445-45-0,CC(OC)(OC)OC,"1,1,1-TRIMETHOXYETHANE","1,1,1-Trimethoxyethane","1,1,1-trimethoxyethane",22739,DTXSID8027400,CC(OC)(OC)OC,"InChI=1S/C5H12O3/c1-5(6-2,7-3)8-4/h1-4H3",HDPNBNXLBDFELL-UHFFFAOYSA-N,?,108.0,103808
103810,1450-14-2,1450-14-2,C[Si](C)(C)[Si](C)(C)C,"DISILANE, HEXAMETHYL-","Disilane, hexamethyl-",trimethyl-trimethylsilylsilane,22741,DTXSID2061698,C[Si](C)(C)[Si](C)(C)C,"InChI=1S/C6H18Si2/c1-7(2,3)8(4,5)6/h1-6H3",NEXSMEBSBIABKL-UHFFFAOYSA-N,?,113.5,103810
103811,1450-72-2,1450-72-2,Cc1cc(c(O)cc1)C(C)=O,2-ACETYL-4-METHYLPHENOL,"Ethanone, 1-(2-hydroxy-5-methylphenyl)-",1-(2-hydroxy-5-methylphenyl)ethanone,22742,DTXSID9061702,Cc1cc(c(O)cc1)C(C)=O,"InChI=1S/C9H10O2/c1-6-3-4-9(11)8(5-6)7(2)10/h3-5,11H,1-2H3",YNPDFBFVMJNGKZ-UHFFFAOYSA-N,?,210.0,103811
103812,1453-24-3,1453-24-3,CCC1CCCCC=1,"CYCLOHEXENE, 1-ETHYL-",1-Ethylcyclohexene,1-Ethylcyclohexene,22743,DTXSID60162971,CCC1CCCCC=1,"InChI=1S/C8H14/c1-2-8-6-4-3-5-7-8/h6H,2-5,7H2,1H3",IFVMAGPISVKRAR-UHFFFAOYSA-N,?,137.0,103812
103814,1453-58-3,1453-58-3,Cc1cc[nH][n]1,3-Methyl-1H-pyrazole,3-Methylpyrazole,,22745,DTXSID3073260,Cc1cc[nH][n]1,"InChI=1S/C4H6N2/c1-4-2-3-5-6-4/h2-3H,1H3,(H,5,6)",XKVUYEYANWFIJX-UHFFFAOYSA-N,?,204.0,103814
103815,1454-85-9,1454-85-9,CCCCCCCCCCCCCCCCCO,HEPTADECYL ALCOHOL,Heptadecan-1-ol,heptadecan-1-ol,22746,DTXSID3051460,CCCCCCCCCCCCCCCCCO,"InChI=1S/C17H36O/c1-2-3-4-5-6-7-8-9-10-11-12-13-14-15-16-17-18/h18H,2-17H2,1H3",GOQYKNQRPGWPLP-UHFFFAOYSA-N,?,333.0,103815
103816,1455-20-5,1455-20-5,CCCCc1ccc[s]1,"THIOPHENE, 2-BUTYL-",2-n-Butylthiophene,2-Butylthiophene,22747,DTXSID80163081,CCCCc1ccc[s]1,"InChI=1S/C8H12S/c1-2-3-5-8-6-4-7-9-8/h4,6-7H,2-3,5H2,1H3",MNDZHERKKXUTOE-UHFFFAOYSA-N,?,181.5,103816
103818,1457-85-8,1457-85-8,CCOC(=O)C(=O)Nc1ccccc1,"OXANILIC ACID,ETHYL ESTER",Ethyl oxanilate,ethyl 2-oxo-2-(phenylamino)acetate,22749,DTXSID3074527,CCOC(=O)C(=O)Nc1ccccc1,"InChI=1S/C10H11NO3/c1-2-14-10(13)9(12)11-8-6-4-3-5-7-8/h3-7H,2H2,1H3,(H,11,12)",YDGAUBHNAKCSKF-UHFFFAOYSA-N,?,280.0,103818
103819,1459-00-3,NOCAS_870876,CC(CBr)c1ccccc1,"BENZENE, (2-BROMO-1-METHYLETHYL)-",,,22750,DTXSID50870876,CC(CBr)c1ccccc1,"InChI=1S/C9H11Br/c1-8(7-10)9-5-3-2-4-6-9/h2-6,8H,7H2,1H3",XJWVCWQKZQENDS-UHFFFAOYSA-N,?,188.5,103819
103820,1459-09-2,1459-09-2,CCCCCCCCCCCCCCCCc1ccccc1,N-HEXADECYLBENZENE,Hexadecylbenzene,Hexadecylbenzene,22751,DTXSID4061707,CCCCCCCCCCCCCCCCc1ccccc1,"InChI=1S/C22H38/c1-2-3-4-5-6-7-8-9-10-11-12-13-14-16-19-22-20-17-15-18-21-22/h15,17-18,20-21H,2-14,16,19H2,1H3",DEQLTFPCJRGSHW-UHFFFAOYSA-N,?,385.0,103820
103822,1459-93-4,1459-93-4,COC(=O)c1cc(ccc1)C(=O)OC,DIMETHYL ISOPHTHALATE,Dimethyl isophthalate,"dimethyl benzene-1,3-dicarboxylate",22753,DTXSID8027402,COC(=O)c1cc(ccc1)C(=O)OC,"InChI=1S/C10H10O4/c1-13-9(11)7-4-3-5-8(6-7)10(12)14-2/h3-6H,1-2H3",VNGOYPQMJFJDLV-UHFFFAOYSA-N,?,282.0,103822
103823,1460-16-8,1460-16-8,OC(=O)C1CCCCCC1,CYCLOHEPTANECARBOXYLATE,Cycloheptanecarboxylic acid,Cycloheptanecarboxylic acid,22754,DTXSID10163256,OC(=O)C1CCCCCC1,"InChI=1S/C8H14O2/c9-8(10)7-5-3-1-2-4-6-7/h7H,1-6H2,(H,9,10)",VZFUCHSFHOYXIS-UHFFFAOYSA-N,?,259.0,103823
103824,1462-03-9,1462-03-9,CC1(O)CCCC1,1-Hydroxy-1-methylcyclopentane,1-Methylcyclopentanol,1-methylcyclopentan-1-ol,22755,DTXSID50163295,CC1(O)CCCC1,"InChI=1S/C6H12O/c1-6(7)4-2-3-5-6/h7H,2-5H2,1H3",CAKWRXVKWGUISE-UHFFFAOYSA-N,?,136.0,103824
103826,1463-17-8,1463-17-8,Cc1ccc2cccc(C)c2[n]1,"2,8-Dimethylquinoline","2,8-Dimethylquinoline","2,8-DIMETHYLQUINOLINE",22757,DTXSID80163349,Cc1ccc2cccc(C)c2[n]1,"InChI=1S/C11H11N/c1-8-4-3-5-10-7-6-9(2)12-11(8)10/h3-7H,1-2H3",BELFSAVWJLQIBB-UHFFFAOYSA-N,?,255.3,103826