ChemID,source_casrn,CAS,SMILES,NAME,preferred_name,iupac,MPID,dsstox_substance_id,Canonical_QSARr,InChI_Code_QSARr,InChI Key_QSARr,Salt_Solvent,Salt_Solvent_ID,MP,ID
103359,472-70-8,1200446-88-3,CC1(C)C[C@@H](O)CC(C)=C1/C=C/C(/C)=C/C=C/C(/C)=C/C=C/C=C(\C)/C=C/C=C(\C)/C=C/C1=C(C)CCCC1(C)C,Cryptoxanthin,PUBCHEM_44554791,C40H56O,30499,DTXSID00659315,CC1(C)CC(O)CC(C)=C1C=CC(C)=CC=CC(C)=CC=CC=C(C)C=CC=C(C)C=CC1=C(C)CCCC1(C)C,"InChI=1S/C40H56O/c1-30(18-13-20-32(3)23-25-37-34(5)22-15-27-39(37,7)8)16-11-12-17-31(2)19-14-21-33(4)24-26-38-35(6)28-36(41)29-40(38,9)10/h11-14,16-21,23-26,36,41H,15,22,27-29H2,1-10H3/b12-11+,18-13+,19-14+,25-23+,26-24+,30-16+,31-17+,32-20+,33-21+",DMASLKHVQRHNES-QQGJMDNJSA-N,?,,160.0,103359
103364,473-34-7,473-34-7,Cc1ccc(cc1)S(=O)(=O)N(Cl)Cl,"Benzenesulfonamide, N,N-dichloro-4-methyl-","Benzenesulfonamide, N,N-dichloro-4-methyl-","N,N-dichloro-4-methylbenzenesulfonamide",30503,DTXSID6060054,Cc1ccc(cc1)S(=O)(=O)N(Cl)Cl,"InChI=1S/C7H7Cl2NO2S/c1-6-2-4-7(5-3-6)13(11,12)10(8)9/h2-5H,1H3",ARGDYOIRHYLIMT-UHFFFAOYSA-N,?,,83.0,103364
103372,474-86-2,474-86-2,C[C@]12CC[C@@H]3c4ccc(O)cc4CC=C3[C@@H]1CCC2=O,Equilin,Equilin,"3-hydroxyestra-1,3,5(10),7-tetraen-17-one",30509,DTXSID7047433,CC12CCC3c4ccc(O)cc4CC=C3C1CCC2=O,"InChI=1S/C18H20O2/c1-18-9-8-14-13-5-3-12(19)10-11(13)2-4-15(14)16(18)6-7-17(18)20/h3-5,10,14,16,19H,2,6-9H2,1H3",WKRLQDKEXYKHJB-UHFFFAOYSA-N,?,,239.0,103372
103377,476-28-8,476-28-8,O[C@H]1C=C2CCN3Cc4cc5OCOc5cc4[C@@H]([C@H]32)[C@@H]1O,Lycorine,Lycorine,,30513,DTXSID60197208,OC1C=C2CCN3Cc4cc5OCOc5cc4C(C32)C1O,"InChI=1S/C16H17NO4/c18-11-3-8-1-2-17-6-9-4-12-13(21-7-20-12)5-10(9)14(15(8)17)16(11)19/h3-5,11,14-16,18-19H,1-2,6-7H2",XGVJWXAYKUHDOO-UHFFFAOYSA-N,?,,280.0,103377
103385,479-20-9,479-20-9,COC(=O)c1c(O)c(C)c(cc1C)OC(=O)c1c(O)c(C=O)c(O)cc1C,Atranorin,Atranorin,"methyl 4-(3-formyl-2,4-dihydroxy-6-methylbenzoyl)oxy-2-hydroxy-3,6-dimethylbenzoate",30520,DTXSID10197319,COC(=O)c1c(O)c(C)c(cc1C)OC(=O)c1c(O)c(C=O)c(O)cc1C,"InChI=1S/C19H18O8/c1-8-5-12(21)11(7-20)17(23)15(8)19(25)27-13-6-9(2)14(18(24)26-4)16(22)10(13)3/h5-7,21-23H,1-4H3",YLOYKYXNDHOHHT-UHFFFAOYSA-N,?,,195.0,103385
103389,479-45-8,479-45-8,CN(c1c(cc(cc1[N+]([O-])=O)[N+]([O-])=O)[N+]([O-])=O)[N+]([O-])=O,TETRYL,Trinitrophenylmethylnitramine,"N-methyl-N,2,4,6-tetranitroaniline",30524,DTXSID7047770,CN(c1c(cc(cc1[N+]([O-])=O)[N+]([O-])=O)[N+]([O-])=O)[N+]([O-])=O,"InChI=1S/C7H5N5O8/c1-8(12(19)20)7-5(10(15)16)2-4(9(13)14)3-6(7)11(17)18/h2-3H,1H3",AGUIVNYEYSCPNI-UHFFFAOYSA-N,?,,131.5,103389
103394,480-40-0,480-40-0,Oc1cc(O)cc2OC(=CC(=O)c12)c1ccccc1,"5,7-HYDROXYFLAVONE",Chrysin,"5,7-dihydroxy-2-phenyl-4H-chromen-4-one",30528,DTXSID1022396,Oc1cc(O)cc2OC(=CC(=O)c12)c1ccccc1,"InChI=1S/C15H10O4/c16-10-6-11(17)15-12(18)8-13(19-14(15)7-10)9-4-2-1-3-5-9/h1-8,16-17H",RTIXKCRFFJGDFG-UHFFFAOYSA-N,?,,285.5,103394
103398,480-63-7,480-63-7,Cc1cc(C)c(C(O)=O)c(C)c1,"2,4,6-Trimethylbenzoic acid","2,4,6-Trimethylbenzoic acid","2,4,6-trimethylbenzoic acid",30532,DTXSID6048200,Cc1cc(C)c(C(O)=O)c(C)c1,"InChI=1S/C10H12O2/c1-6-4-7(2)9(10(11)12)8(3)5-6/h4-5H,1-3H3,(H,11,12)",FFFIRKXTFQCCKJ-UHFFFAOYSA-N,?,,154.0,103398
103403,480-85-3,15342-56-0,O[C@@H]1CCN2CC=C(CO)[C@@H]21,Retronecine,,,30536,DTXSID40165324,OC1CCN2CC=C(CO)C21,"InChI=1S/C8H13NO2/c10-5-6-1-3-9-4-2-7(11)8(6)9/h1,7-8,10-11H,2-5H2",HJSJELVDQOXCHO-UHFFFAOYSA-N,?,,119.5,103403
103407,481-06-1,481-06-1,CC1C(=O)C=C[C@]2(C)CC[C@@H]3[C@H](OC(=O)[C@H]3C)C2=1,SANTONIN,alpha-Santonin,"(3S,3aS,5aS,9bS)-3,5a,9-trimethyl-3a,5,5a,9b-tetrahydronaphtho[1,2-b]furan-2,8(3H,4H)-dione",30540,DTXSID7045312,CC1C(=O)C=CC2(C)CCC3C(OC(=O)C3C)C2=1,"InChI=1S/C15H18O3/c1-8-10-4-6-15(3)7-5-11(16)9(2)12(15)13(10)18-14(8)17/h5,7-8,10,13H,4,6H2,1-3H3",XJHDMGJURBVLLE-UHFFFAOYSA-N,?,,175.0,103407
103413,481-37-8,5878-35-3,CN1[C@@H]2C[C@@H](O)[C@@H]([C@H]1CC2)C(O)=O,Ecgonine,CTK1H4522,C9H15NO3,30546,DTXSID10486735,CN1C2CC(O)C(C1CC2)C(O)=O,"InChI=1S/C9H15NO3/c1-10-5-2-3-6(10)8(9(12)13)7(11)4-5/h5-8,11H,2-4H2,1H3,(H,12,13)",PHMBVCPLDPDESM-UHFFFAOYSA-N,?,,205.0,103413
103417,481-74-3,481-74-3,Cc1cc2c(C(=O)c3c(cccc3O)C2=O)c(O)c1,CHRYSOPHANOL,Chrysophanic acid,"1,8-dihydroxy-3-methylanthracene-9,10-dione",30550,DTXSID6024832,Cc1cc2c(C(=O)c3c(cccc3O)C2=O)c(O)c1,"InChI=1S/C15H10O4/c1-7-5-9-13(11(17)6-7)15(19)12-8(14(9)18)3-2-4-10(12)16/h2-6,16-17H,1H3",LQGUBLBATBMXHT-UHFFFAOYSA-N,?,,196.0,103417
103421,482-44-0,482-44-0,CC(C)=CCOc1c2OC(=O)C=Cc2cc2ccoc21,Imperatorin,Imperatorin,"9-[(3-methylbut-2-en-1-yl)oxy]-7H-furo[3,2-g]chromen-7-one",30554,DTXSID8048737,CC(C)=CCOc1c2OC(=O)C=Cc2cc2ccoc21,"InChI=1S/C16H14O4/c1-10(2)5-7-19-16-14-12(6-8-18-14)9-11-3-4-13(17)20-15(11)16/h3-6,8-9H,7H2,1-2H3",OLOOJGVNMBJLLR-UHFFFAOYSA-N,?,,102.0,103421
103425,483-54-5,483-54-5,CC1C(=O)C(OC)=C(OC)C(=O)C=1C,"2,3-DIMETHOXY-5,6-DIMETHYLBENZOQUINONE","2,3-DIMETHOXY-5,6-DIMETHYL-P-BENZOQUINONE",C10H12O4,30558,DTXSID50486259,CC1C(=O)C(OC)=C(OC)C(=O)C=1C,InChI=1S/C10H12O4/c1-5-6(2)8(12)10(14-4)9(13-3)7(5)11/h1-4H3,NOYQJVWDVBANHI-UHFFFAOYSA-N,?,,62.5,103425
103431,484-20-8,484-20-8,COc1c2ccoc2cc2OC(=O)C=Cc21,Bergapten(e),5-Methoxypsoralen,"4-methoxy-7H-furo[3,2-g]chromen-7-one",30562,DTXSID1025560,COc1c2ccoc2cc2OC(=O)C=Cc21,"InChI=1S/C12H8O4/c1-14-12-7-2-3-11(13)16-10(7)6-9-8(12)4-5-15-9/h2-6H,1H3",BGEBZHIAGXMEMV-UHFFFAOYSA-N,?,,188.0,103431
103435,484-67-3,484-67-3,COc1c(Cl)c(Cl)c(O)c(Cl)c1Cl,"PHENOL, 2,3,5,6-TETRACHLORO-4-METHOXY-",Drosophilin A,"2,3,5,6-tetrachloro-4-methoxyphenol",30566,DTXSID90197514,COc1c(Cl)c(Cl)c(O)c(Cl)c1Cl,"InChI=1S/C7H4Cl4O2/c1-13-7-4(10)2(8)6(12)3(9)5(7)11/h12H,1H3",XIWJLPHQDBDOAN-UHFFFAOYSA-N,?,,116.0,103435
103439,485-49-4,485-49-4,CN1CCc2cc3OCOc3cc2[C@H]1[C@@H]1OC(=O)c2c3OCOc3ccc21,Bicuculline,Bicuculline,"(6R)-6-[(5S)-6-methyl-5,6,7,8-tetrahydro[1,3]dioxolo[4,5-g]isoquinolin-5-yl]furo[3,4-e][1,3]benzodioxol-8(6H)-one",30570,DTXSID3042687,CN1CCc2cc3OCOc3cc2C1C1OC(=O)c2c3OCOc3ccc21,"InChI=1S/C20H17NO6/c1-21-5-4-10-6-14-15(25-8-24-14)7-12(10)17(21)18-11-2-3-13-19(26-9-23-13)16(11)20(22)27-18/h2-3,6-7,17-18H,4-5,8-9H2,1H3",IYGYMKDQCDOMRE-UHFFFAOYSA-N,?,,194.0,103439
103444,486-12-4,486-12-4,Cc1ccc(cc1)/C(=C\CN1CCCC1)/c1cccc[n]1,TRIPOLIDINE,Triprolidine,2-[(1E)-1-(4-methylphenyl)-3-(pyrrolidin-1-yl)prop-1-en-1-yl]pyridine,30575,DTXSID3023718,Cc1ccc(cc1)C(=CCN1CCCC1)c1cccc[n]1,"InChI=1S/C19H22N2/c1-16-7-9-17(10-8-16)18(19-6-2-3-12-20-19)11-15-21-13-4-5-14-21/h2-3,6-12H,4-5,13-15H2,1H3/b18-11-",CBEQULMOCCWAQT-WQRHYEAKSA-N,?,,60.0,103444
103448,486-47-5,486-47-5,CCOc1ccc(Cc2[n]ccc3cc(OCC)c(cc32)OCC)cc1OCC,Ethaverine,Ethaverine,"1-(3,4-diethoxybenzyl)-6,7-diethoxyisoquinoline",30579,DTXSID3023009,CCOc1ccc(Cc2[n]ccc3cc(OCC)c(cc32)OCC)cc1OCC,"InChI=1S/C24H29NO4/c1-5-26-21-10-9-17(14-22(21)27-6-2)13-20-19-16-24(29-8-4)23(28-7-3)15-18(19)11-12-25-20/h9-12,14-16H,5-8,13H2,1-4H3",ZOWYFYXTIWQBEP-UHFFFAOYSA-N,?,,100.0,103448
103452,486-79-3,486-79-3,CC(=O)Oc1cccc(C(O)=O)c1OC(C)=O,Dipyrocetyl,Dipyrocetyl,"2,3-bis(acetyloxy)benzoic acid",30583,DTXSID9045976,CC(=O)Oc1cccc(C(O)=O)c1OC(C)=O,"InChI=1S/C11H10O6/c1-6(12)16-9-5-3-4-8(11(14)15)10(9)17-7(2)13/h3-5H,1-2H3,(H,14,15)",NYIZXMGNIUSNKL-UHFFFAOYSA-N,?,,149.0,103452
103456,487-10-5,NOCAS_870553,c1cccc2c(cccc21)N=Nc1cccc2ccccc21,Di-naphthalen-1-yl-diazene,,,30587,DTXSID50870553,c1cccc2c(cccc21)N=Nc1cccc2ccccc21,InChI=1S/C20H14N2/c1-3-11-17-15(7-1)9-5-13-19(17)21-22-20-14-6-10-16-8-2-4-12-18(16)20/h1-14H/b22-21+,ICIDZHMCYAIUIJ-QURGRASLSA-N,?,,190.0,103456
103461,487-54-7,487-54-7,OC(=O)CNC(=O)c1ccccc1O,"GLYCINE, N-(2-HYDROXYBENZOYL)-",Salicylurate,2-[(2-hydroxybenzoyl)amino]acetic acid,30591,DTXSID70197592,OC(=O)CNC(=O)c1ccccc1O,"InChI=1S/C9H9NO4/c11-7-4-2-1-3-6(7)9(14)10-5-8(12)13/h1-4,11H,5H2,(H,10,14)(H,12,13)",ONJSZLXSECQROL-UHFFFAOYSA-N,?,,168.0,103461
103465,488-17-5,488-17-5,Cc1cccc(O)c1O,"1,2-Benzenediol, 3-methyl-","1,2-Benzenediol, 3-methyl-","3-methylbenzene-1,2-diol",30595,DTXSID9060071,Cc1cccc(O)c1O,"InChI=1S/C7H8O2/c1-5-3-2-4-6(8)7(5)9/h2-4,8-9H,1H3",PGSWEKYNAOWQDF-UHFFFAOYSA-N,?,,68.0,103465
103469,488-48-2,488-48-2,O=C1C(Br)=C(Br)C(=O)C(Br)=C1Br,Bromanyl,Bromanyl,"2,3,5,6-tetrabromocyclohexa-2,5-diene-1,4-dione",30599,DTXSID20197608,O=C1C(Br)=C(Br)C(=O)C(Br)=C1Br,InChI=1S/C6Br4O2/c7-1-2(8)6(12)4(10)3(9)5(1)11,LWHDQPLUIFIFFT-UHFFFAOYSA-N,?,,293.0,103469
103474,488-87-9,488-87-9,Cc1cc(O)c(C)c(O)c1,"2,5-DIMETHYL-1,3-BENZENEDIOL","2,5-Dimethylresorcinol",,30604,DTXSID90197610,Cc1cc(O)c(C)c(O)c1,"InChI=1S/C8H10O2/c1-5-3-7(9)6(2)8(10)4-5/h3-4,9-10H,1-2H3",GHVHDYYKJYXFGU-UHFFFAOYSA-N,?,,163.0,103474
103479,489-98-5,489-98-5,Nc1c(cc(cc1[N+]([O-])=O)[N+]([O-])=O)[N+]([O-])=O,"2,4,6-Trinitroaniline","2,4,6-Trinitroaniline","2,4,6-Trinitroaniline",30608,DTXSID9074850,Nc1c(cc(cc1[N+]([O-])=O)[N+]([O-])=O)[N+]([O-])=O,"InChI=1S/C6H4N4O6/c7-6-4(9(13)14)1-3(8(11)12)2-5(6)10(15)16/h1-2H,7H2",IAHOUQOWMXVMEH-UHFFFAOYSA-N,?,,193.5,103479
103484,490-67-5,490-67-5,COC(=O)c1ccccc1O[C@@H]1O[C@H](CO[C@@H]2OC[C@@H](O)[C@H](O)[C@H]2O)[C@@H](O)[C@H](O)[C@H]1O,MONOTROPITOSIDE,,,30612,DTXSID20878440,COC(=O)c1ccccc1OC1OC(COC2OCC(O)C(O)C2O)C(O)C(O)C1O,"InChI=1S/C19H26O12/c1-27-17(26)8-4-2-3-5-10(8)30-19-16(25)14(23)13(22)11(31-19)7-29-18-15(24)12(21)9(20)6-28-18/h2-5,9,11-16,18-25H,6-7H2,1H3",VHUNCYDAXJGCLO-UHFFFAOYSA-N,?,,180.0,103484
103490,491-35-0,491-35-0,Cc1cc[n]c2ccccc21,4-METHYLQUINOLINE,Lepidine,4-methylquinoline,30616,DTXSID7047067,Cc1cc[n]c2ccccc21,"InChI=1S/C10H9N/c1-8-6-7-11-10-5-3-2-4-9(8)10/h2-7H,1H3",MUDSDYNRBDKLGK-UHFFFAOYSA-N,?,,9.5,103490
103494,,491-50-9,OC[C@H]1O[C@@H](Oc2cc3OC(c4cc(O)c(O)cc4)=C(O)C(=O)c3c(O)c2)[C@H](O)[C@@H](O)[C@@H]1O,Quercimeritrin,,,30620,,OCC1OC(Oc2cc3OC(c4cc(O)c(O)cc4)=C(O)C(=O)c3c(O)c2)C(O)C(O)C1O,"InChI=1S/C21H20O12/c22-6-13-15(26)17(28)19(30)21(33-13)31-8-4-11(25)14-12(5-8)32-20(18(29)16(14)27)7-1-2-9(23)10(24)3-7/h1-5,13,15,17,19,21-26,28-30H,6H2",BBFYUPYFXSSMNV-UHFFFAOYSA-N,?,,248.0,103494
103498,492-22-8,492-22-8,O=C1c2ccccc2Sc2ccccc21,9H-THIOXANTHEN-9-ONE,Thioxanthone,Thioxanthen-9-one,30624,DTXSID8060082,O=C1c2ccccc2Sc2ccccc21,InChI=1S/C13H8OS/c14-13-9-5-1-3-7-11(9)15-12-8-4-2-6-10(12)13/h1-8H,YRHRIQCWCFGUEQ-UHFFFAOYSA-N,?,,209.0,103498
103503,492-80-8,492-80-8,CN(C)c1ccc(cc1)C(=N)c1ccc(cc1)N(C)C,AURAMINE,Auramine,"4,4'-carbonimidoylbis(N,N-dimethylaniline)",30629,DTXSID7043821,CN(C)c1ccc(cc1)C(=N)c1ccc(cc1)N(C)C,"InChI=1S/C17H21N3/c1-19(2)15-9-5-13(6-10-15)17(18)14-7-11-16(12-8-14)20(3)4/h5-12,18H,1-4H3",JPIYZTWMUGTEHX-UHFFFAOYSA-N,?,,136.0,103503
103507,492-94-4,492-94-4,O=C(c1ccco1)C(=O)c1ccco1,"FURAN, 2-COCO-FURYL","Ethanedione,di-2-furanyl-","1,2-di(furan-2-yl)ethane-1,2-dione",30633,DTXSID3049413,O=C(c1ccco1)C(=O)c1ccco1,InChI=1S/C10H6O4/c11-9(7-3-1-5-13-7)10(12)8-4-2-6-14-8/h1-6H,SXPUVBFQXJHYNS-UHFFFAOYSA-N,?,,164.0,103507
103513,493-49-2,493-49-2,COc1cc2C(=O)NCCc2cc1OC,,"6,7-dimethoxy-3,4-dihydro-2H-isoquinolin-1-one",C11H13NO3,30639,DTXSID90346166,COc1cc2C(=O)NCCc2cc1OC,"InChI=1S/C11H13NO3/c1-14-9-5-7-3-4-12-11(13)8(7)6-10(9)15-2/h5-6H,3-4H2,1-2H3,(H,12,13)",MQKFSXLBPPCAGR-UHFFFAOYSA-N,?,,175.0,103513
103517,494-08-6,494-08-6,COc1cc(C=O)ccc1O[C@@H]1O[C@H](CO)[C@@H](O)[C@H](O)[C@H]1O,Glucovanillin,Glucovanillin,"3-methoxy-4-[(2S,3R,4S,5S,6R)-3,4,5-trihydroxy-6-(hydroxymethyl)oxan-2-yl]oxybenzaldehyde",30643,DTXSID00197782,COc1cc(C=O)ccc1OC1OC(CO)C(O)C(O)C1O,"InChI=1S/C14H18O8/c1-20-9-4-7(5-15)2-3-8(9)21-14-13(19)12(18)11(17)10(6-16)22-14/h2-5,10-14,16-19H,6H2,1H3",LPRNQMUKVDHCFX-UHFFFAOYSA-N,?,,189.0,103517
103521,494-47-3,494-47-3,C(=N/C(/N=C/c1ccco1)c1ccco1)\c1ccco1,Hydrofuramide,,,30647,DTXSID30877702,C(=NC(N=Cc1ccco1)c1ccco1)c1ccco1,"InChI=1S/C15H12N2O3/c1-4-12(18-7-1)10-16-15(14-6-3-9-20-14)17-11-13-5-2-8-19-13/h1-11,15H/b16-10+,17-11+",CYGDSXFTXXFMNI-OTYYAQKOSA-N,?,,117.0,103521
103526,495-08-9,495-08-9,OCc1cc(O)ccc1O,Gentisyl Alcohol,"2,5-Dihydroxybenzyl alcohol","2-(hydroxymethyl)benzene-1,4-diol",30651,DTXSID60197804,OCc1cc(O)ccc1O,"InChI=1S/C7H8O3/c8-4-5-3-6(9)1-2-7(5)10/h1-3,8-10H,4H2",PUZSUVGRVHEUQO-UHFFFAOYSA-N,?,,100.0,103526
103530,495-41-0,35845-66-0,C/C=C/C(=O)c1ccccc1,"2-Buten-1-one, 1-phenyl-",Phenyl propenyl ketone,1-phenylbut-2-en-1-one,30655,DTXSID30189392,CC=CC(=O)c1ccccc1,"InChI=1S/C10H10O/c1-2-6-10(11)9-7-4-3-5-8-9/h2-8H,1H3/b6-2+",FUJZJBCWPIOHHN-QHHAFSJGSA-N,?,,20.5,103530
103534,495-76-1,495-76-1,OCc1cc2OCOc2cc1,"1,3-BENZODIOXOLE-5-METHANOL","1,3-Benzodioxole-5-methanol","1,3-benzodioxol-5-ylmethanol",30659,DTXSID3060089,OCc1cc2OCOc2cc1,"InChI=1S/C8H8O3/c9-4-6-1-2-7-8(3-6)11-5-10-7/h1-3,9H,4-5H2",BHUIUXNAPJIDOG-UHFFFAOYSA-N,?,,58.0,103534
103539,496-11-7,496-11-7,C1CCc2ccccc21,INDANE,Indan,indane,30663,DTXSID4052132,C1CCc2ccccc21,"InChI=1S/C9H10/c1-2-5-9-7-3-6-8(9)4-1/h1-2,4-5H,3,6-7H2",PQNFLJBBNBOBRQ-UHFFFAOYSA-N,?,,-51.4,103539
103543,496-67-3,496-67-3,CC(C)C(Br)C(=O)NC(N)=O,A-BROMO-I-VALERYLUREA,Bromisovalum,2-bromo-N-carbamoyl-3-methylbutanamide,30667,DTXSID2040656,CC(C)C(Br)C(=O)NC(N)=O,"InChI=1S/C6H11BrN2O2/c1-3(2)4(7)5(10)9-6(8)11/h3-4H,1-2H3,(H3,8,9,10,11)",CMCCHHWTTBEZNM-UHFFFAOYSA-N,?,,154.0,103543
103547,496-78-6,496-78-6,Cc1cc(O)c(C)cc1C,"2,4,5-TRIMETHYLPHENOL","2,4,5-Trimethylphenol","2,4,5-Trimethylphenol",30671,DTXSID2060094,Cc1cc(O)c(C)cc1C,"InChI=1S/C9H12O/c1-6-4-8(3)9(10)5-7(6)2/h4-5,10H,1-3H3",VXSCPERJHPWROZ-UHFFFAOYSA-N,?,,72.0,103547
103552,497-39-2,497-39-2,Cc1cc(O)c(cc1C(C)(C)C)C(C)(C)C,"Phenol, 2,4-bis(1,1-dimethylethyl)-5-methyl-","4,6-Di-tert-butyl-m-cresol","2,4-di-tert-butyl-5-methylphenol",30676,DTXSID1041502,Cc1cc(O)c(cc1C(C)(C)C)C(C)(C)C,"InChI=1S/C15H24O/c1-10-8-13(16)12(15(5,6)7)9-11(10)14(2,3)4/h8-9,16H,1-7H3",WYSSJDOPILWQDC-UHFFFAOYSA-N,?,,62.1,103552
103556,498-00-0,498-00-0,COc1cc(CO)ccc1O,4-HYDROXY-3-METHOXY-BENZYLALKOHOL,Vanillyl alcohol,4-(hydroxymethyl)-2-methoxyphenol,30680,DTXSID20198074,COc1cc(CO)ccc1O,"InChI=1S/C8H10O3/c1-11-8-4-6(5-9)2-3-7(8)10/h2-4,9-10H,5H2,1H3",ZENOXNGFMSCLLL-UHFFFAOYSA-N,?,,115.0,103556
103562,498-66-8,498-66-8,C1C2CCC1C=C2,BICYCLO[2.2.1]-2-HEPTENE,Norbornylene,bicyclo[2.2.1]hept-2-ene,30684,DTXSID2022042,C1C2CCC1C=C2,"InChI=1S/C7H10/c1-2-7-4-3-6(1)5-7/h1-2,6-7H,3-5H2",JFNLZVQOOSMTJK-UHFFFAOYSA-N,?,,45.0,103562
103566,499-06-9,499-06-9,Cc1cc(cc(C)c1)C(O)=O,"Benzoic acid, 3,5-dimethyl-","Benzoic acid, 3,5-dimethyl-","3,5-Dimethylbenzoic acid",30688,DTXSID4060101,Cc1cc(cc(C)c1)C(O)=O,"InChI=1S/C9H10O2/c1-6-3-7(2)5-8(4-6)9(10)11/h3-5H,1-2H3,(H,10,11)",UMVOQQDNEYOJOK-UHFFFAOYSA-N,?,,171.1,103566
103570,499-89-8,499-89-8,CC1(C)C=CC=C(C=C1)C(O)=O,Thujic Acid,Thujic acid,"5,5-dimethylcyclohepta-1,3,6-triene-1-carboxylic acid",30692,DTXSID20198150,CC1(C)C=CC=C(C=C1)C(O)=O,"InChI=1S/C10H12O2/c1-10(2)6-3-4-8(5-7-10)9(11)12/h3-7H,1-2H3,(H,11,12)",JHHXPQAUADQJBQ-UHFFFAOYSA-N,?,,88.5,103570
103574,500-38-9,500-38-9,CC(Cc1cc(O)c(O)cc1)C(C)Cc1cc(O)c(O)cc1,"1,2-BENZENEDIOL, 4,4'-(2,3-DIMETHYL-1,4-BUTANEDI",Nordihydroguaiaretic acid,"4,4'-(2,3-dimethylbutane-1,4-diyl)dibenzene-1,2-diol",30696,DTXSID5022437,CC(Cc1cc(O)c(O)cc1)C(C)Cc1cc(O)c(O)cc1,"InChI=1S/C18H22O4/c1-11(7-13-3-5-15(19)17(21)9-13)12(2)8-14-4-6-16(20)18(22)10-14/h3-6,9-12,19-22H,7-8H2,1-2H3",HCZKYJDFEPMADG-UHFFFAOYSA-N,?,,185.5,103574
103579,500-72-1,500-72-1,OC(=O)C(=O)Nc1ccccc1,"ACETIC ACID, OXO(PHENYLAMINO)-","Acetic acid, oxo(phenylamino)-",2-oxo-2-(phenylamino)acetic acid,30700,DTXSID4060105,OC(=O)C(=O)Nc1ccccc1,"InChI=1S/C8H7NO3/c10-7(8(11)12)9-6-4-2-1-3-5-6/h1-5H,(H,9,10)(H,11,12)",PQJZHMCWDKOPQG-UHFFFAOYSA-N,?,,150.0,103579
103583,501-15-5,501-15-5,CNCCc1cc(O)c(O)cc1,Deoxyepinephrine,Deoxyepinephrine,"4-(2-methylaminoethyl)benzene-1,2-diol",30704,DTXSID10198205,CNCCc1cc(O)c(O)cc1,"InChI=1S/C9H13NO2/c1-10-5-4-7-2-3-8(11)9(12)6-7/h2-3,6,10-12H,4-5H2,1H3",NGKZFDYBISXGGS-UHFFFAOYSA-N,?,,188.5,103583
103587,501-52-0,501-52-0,OC(=O)CCc1ccccc1,BETA-PHENYLPROPIONIC ACID,Hydrocinnamic acid,3-phenylpropanoic acid,30708,DTXSID2047064,OC(=O)CCc1ccccc1,"InChI=1S/C9H10O2/c10-9(11)7-6-8-4-2-1-3-5-8/h1-5H,6-7H2,(H,10,11)",XMIIGOLPHOKFCH-UHFFFAOYSA-N,?,,107.0,103587
103591,501-92-8,501-92-8,C=CCc1ccc(O)cc1,4-(2-PROPENYL)PHENOL,Chavicol,4-prop-2-enylphenol,30712,DTXSID60198210,C=CCc1ccc(O)cc1,"InChI=1S/C9H10O/c1-2-3-8-4-6-9(10)7-5-8/h2,4-7,10H,1,3H2",RGIBXDHONMXTLI-UHFFFAOYSA-N,?,,15.8,103591
103596,502-44-3,502-44-3,O=C1CCCCCO1,E-CAPROLACTONE,2-Oxepanone,oxepan-2-one,30716,DTXSID4027159,O=C1CCCCCO1,InChI=1S/C6H10O2/c7-6-4-2-1-3-5-8-6/h1-5H2,PAPBSGBWRJIAAV-UHFFFAOYSA-N,?,,-18.0,103596
103600,502-56-7,502-56-7,CCCCC(=O)CCCC,5-NONANONE,5-Nonanone,nonan-5-one,30720,DTXSID7022045,CCCCC(=O)CCCC,"InChI=1S/C9H18O/c1-3-5-7-9(10)8-6-4-2/h3-8H2,1-2H3",WSGCRAOTEDLMFQ-UHFFFAOYSA-N,?,,-3.8,103600
103605,503-30-0,503-30-0,C1CCO1,TRIMETHYLENEOXIDE,"1,3-Propylene oxide",oxetane,30724,DTXSID8025969,C1CCO1,InChI=1S/C3H6O/c1-2-4-3-1/h1-3H2,AHHWIHXENZJRFG-UHFFFAOYSA-N,?,,-97.0,103605
103610,503-87-7,503-87-7,O=C1CNC(=S)N1,"4-Imidazolidinone, 2-thioxo-","4-Imidazolidinone, 2-thioxo-",2-sulfanylideneimidazolidin-4-one,30728,DTXSID2060121,O=C1CNC(=S)N1,"InChI=1S/C3H4N2OS/c6-2-1-4-3(7)5-2/h1H2,(H2,4,5,6,7)",UGWULZWUXSCWPX-UHFFFAOYSA-N,?,,230.0,103610
103614,504-20-1,504-20-1,CC(C)=CC(=O)C=C(C)C,PHORONE,Phorone,"2,6-dimethylhepta-2,5-dien-4-one",30731,DTXSID1021584,CC(C)=CC(=O)C=C(C)C,"InChI=1S/C9H14O/c1-7(2)5-9(10)6-8(3)4/h5-6H,1-4H3",MTZWHHIREPJPTG-UHFFFAOYSA-N,?,,28.0,103614
103618,504-53-0,504-53-0,CCCCCCCCCCCCCCCCCC(=O)CCCCCCCCCCCCCCCCC,18-Pentatriacontanone,18-Pentatriacontanone,pentatriacontan-18-one,30735,DTXSID2060125,CCCCCCCCCCCCCCCCCC(=O)CCCCCCCCCCCCCCCCC,"InChI=1S/C35H70O/c1-3-5-7-9-11-13-15-17-19-21-23-25-27-29-31-33-35(36)34-32-30-28-26-24-22-20-18-16-14-12-10-8-6-4-2/h3-34H2,1-2H3",DMCJFWXGXUEHFD-UHFFFAOYSA-N,?,,89.0,103618
103622,504-88-1,504-88-1,[O-][N+](=O)CCC(O)=O,3-Nitropropionic acid,3-Nitropropionic acid,3-nitropropanoic acid,30739,DTXSID1020982,[O-][N+](=O)CCC(O)=O,"InChI=1S/C3H5NO4/c5-3(6)1-2-4(7)8/h1-2H2,(H,5,6)",WBLZUCOIBUDNBV-UHFFFAOYSA-N,?,,62.0,103622
103626,505-29-3,505-29-3,C1CSCCS1,"1,4-DITHIANE","1,4-Dithiane","1,4-dithiane",30743,DTXSID3024077,C1CSCCS1,InChI=1S/C4H8S2/c1-2-6-4-3-5-1/h1-4H2,LOZWAPSEEHRYPG-UHFFFAOYSA-N,?,,112.3,103626
103630,505-60-2,505-60-2,ClCCSCCCl,DI-2-CHLOROETHYL SULFIDE,Bis-(2-chloroethyl)sulfide,bis(2-chloroethyl) sulfide,30747,DTXSID0037100,ClCCSCCCl,InChI=1S/C4H8Cl2S/c5-1-3-7-4-2-6/h1-4H2,QKSKPIVNLNLAAV-UHFFFAOYSA-N,?,,13.5,103630
103634,506-03-6,NOCAS_862067,CCCCCCCCCCCCCCCCOCC(O)CO,Chimyl Alcohol,,,30751,DTXSID80862067,CCCCCCCCCCCCCCCCOCC(O)CO,"InChI=1S/C19H40O3/c1-2-3-4-5-6-7-8-9-10-11-12-13-14-15-16-22-18-19(21)17-20/h19-21H,2-18H2,1H3",OOWQBDFWEXAXPB-UHFFFAOYSA-N,?,,64.0,103634
103638,506-30-9,506-30-9,CCCCCCCCCCCCCCCCCCCC(O)=O,EICOSANOIC ACID,Eicosanoic acid,Icosanoic acid,30755,DTXSID1060134,CCCCCCCCCCCCCCCCCCCC(O)=O,"InChI=1S/C20H40O2/c1-2-3-4-5-6-7-8-9-10-11-12-13-14-15-16-17-18-19-20(21)22/h2-19H2,1H3,(H,21,22)",VKOBVWXKNCXXDE-UHFFFAOYSA-N,?,,75.4,103638
103642,506-48-9,506-48-9,CCCCCCCCCCCCCCCCCCCCCCCCCCCC(O)=O,NSC-407311,Octacosanoic acid,OCTACOSANOIC ACID,30759,DTXSID2075051,CCCCCCCCCCCCCCCCCCCCCCCCCCCC(O)=O,"InChI=1S/C28H56O2/c1-2-3-4-5-6-7-8-9-10-11-12-13-14-15-16-17-18-19-20-21-22-23-24-25-26-27-28(29)30/h2-27H2,1H3,(H,29,30)",UTOPWMOLSKOLTQ-UHFFFAOYSA-N,?,,90.9,103642
103648,506-78-5,NOCAS_870573,N#CI,Iodine cyanide,,,30763,DTXSID50870573,N#CI,InChI=1S/CIN/c2-1-3,WPBXOELOQKLBDF-UHFFFAOYSA-N,?,,146.7,103648
103654,507-20-0,507-20-0,CC(C)(C)Cl,T-BUTYL CHLORIDE,t-Butylchloride,2-chloro-2-methylpropane,30767,DTXSID2023937,CC(C)(C)Cl,"InChI=1S/C4H9Cl/c1-4(2,3)5/h1-3H3",NBRKLOOSMBRFMH-UHFFFAOYSA-N,?,,-26.0,103654
103664,507-79-9,507-79-9,CO[C@H]1C[C@@H]2N(C)C[C@@]3(O)OCc4cc5OCOc5cc4[C@]32C=C1,Tazettine,,,30774,DTXSID10878333,COC1CC2N(C)CC3(O)OCc4cc5OCOc5cc4C32C=C1,"InChI=1S/C18H21NO5/c1-19-9-18(20)17(4-3-12(21-2)6-16(17)19)13-7-15-14(22-10-23-15)5-11(13)8-24-18/h3-5,7,12,16,20H,6,8-10H2,1-2H3",YLWAQARRNQVEHD-UHFFFAOYSA-N,?,,210.0,103664