ChemID,source_casrn,CAS,SMILES,NAME,preferred_name,iupac,MPID,dsstox_substance_id,Canonical_QSARr,InChI_Code_QSARr,InChI Key_QSARr,Salt_Solvent,BP,ID
100360,89-58-7,89-58-7,Cc1cc(c(C)cc1)[N+]([O-])=O,"Benzene, 1,4-dimethyl-2-nitro-","1,4-Dimethyl-2-nitrobenzene","1,4-dimethyl-2-nitrobenzene",19439,DTXSID2025137,Cc1cc(c(C)cc1)[N+]([O-])=O,"InChI=1S/C8H9NO2/c1-6-3-4-7(2)8(5-6)9(10)11/h3-5H,1-2H3",BSFHJMGROOFSRA-UHFFFAOYSA-N,?,240.5,100360
100361,89-59-8,89-59-8,Cc1ccc(Cl)cc1[N+]([O-])=O,"BENZENE, 4-CHLORO-1-METHYL-2-NITRO-","Benzene, 4-chloro-1-methyl-2-nitro-",4-chloro-1-methyl-2-nitrobenzene,19440,DTXSID4058994,Cc1ccc(Cl)cc1[N+]([O-])=O,"InChI=1S/C7H6ClNO2/c1-5-2-3-6(8)4-7(5)9(10)11/h2-4H,1H3",SQFLFRQWPBEDHM-UHFFFAOYSA-N,?,242.0,100361
100362,89-60-1,89-60-1,Cc1cc(c(Cl)cc1)[N+]([O-])=O,"Benzene, 1-chloro-4-methyl-2-nitro-","Benzene, 1-chloro-4-methyl-2-nitro-",1-Chloro-4-methyl-2-nitrobenzene,19441,DTXSID9058995,Cc1cc(c(Cl)cc1)[N+]([O-])=O,"InChI=1S/C7H6ClNO2/c1-5-2-3-6(8)7(4-5)9(10)11/h2-4H,1H3",NWESJZZPAJGHRZ-UHFFFAOYSA-N,?,261.0,100362
100364,89-68-9,89-68-9,Cc1cc(O)c(cc1Cl)C(C)C,CHLOROTHYMOL,6-Chlorothymol,4-chloro-5-methyl-2-(propan-2-yl)phenol,19443,DTXSID2041547,Cc1cc(O)c(cc1Cl)C(C)C,"InChI=1S/C10H13ClO/c1-6(2)8-5-9(11)7(3)4-10(8)12/h4-6,12H,1-3H3",KFZXVMNBUMVKLN-UHFFFAOYSA-N,?,258.5,100364
100365,89-69-0,89-69-0,[O-][N+](=O)c1cc(Cl)c(Cl)cc1Cl,"2,4,5-TRICHLORONITROBENZENE","2,4,5-Trichloronitrobenzene","1,2,4-trichloro-5-nitrobenzene",19444,DTXSID5026203,[O-][N+](=O)c1cc(Cl)c(Cl)cc1Cl,InChI=1S/C6H2Cl3NO2/c7-3-1-5(9)6(10(11)12)2-4(3)8/h1-2H,IBRBMZRLVYKVRF-UHFFFAOYSA-N,?,288.0,100365
100366,89-71-4,89-71-4,Cc1ccccc1C(=O)OC,"O-TOLUIC ACID, METHYL ESTER",Methyl 2-methylbenzoate,methyl 2-methylbenzoate,19445,DTXSID6048208,Cc1ccccc1C(=O)OC,"InChI=1S/C9H10O2/c1-7-5-3-4-6-8(7)9(10)11-2/h3-6H,1-2H3",WVWZECQNFWFVFW-UHFFFAOYSA-N,?,215.0,100366
100368,89-74-7,89-74-7,Cc1cc(C)c(cc1)C(C)=O,"Ethanone, 1-(2,4-dimethylphenyl)-","Ethanone, 1-(2,4-dimethylphenyl)-","1-(2,4-DIMETHYLPHENYL)ETHANONE",19447,DTXSID9058997,Cc1cc(C)c(cc1)C(C)=O,"InChI=1S/C10H12O/c1-7-4-5-10(9(3)11)8(2)6-7/h4-6H,1-3H3",HSDSKVWQTONQBJ-UHFFFAOYSA-N,?,228.0,100368
100369,89-78-1|2216-51-5,1490-04-6|2216-51-5,CC(C)C1CCC(C)CC1O,"MENTHOL, MENTHOL (L)",Menthol,5-methyl-2-(propan-2-yl)cyclohexanol,19448|23131,DTXSID8029650|DTXSID1022180,CC(C)C1CCC(C)CC1O,"InChI=1S/C10H20O/c1-7(2)9-5-4-8(3)6-10(9)11/h7-11H,4-6H2,1-3H3",NOOLISFMXDJSKH-UHFFFAOYSA-N,?,212.0,100369
100370,89-81-6,89-81-6,CC1CCC(C(C)C)C(=O)C=1,Piperitone,Piperitone,6-isopropyl-3-methylcyclohex-2-en-1-one,19449,DTXSID7052604,CC1CCC(C(C)C)C(=O)C=1,"InChI=1S/C10H16O/c1-7(2)9-5-4-8(3)6-10(9)11/h6-7,9H,4-5H2,1-3H3",YSTPAHQEHQSRJD-UHFFFAOYSA-N,?,233.0,100370
100372,89-83-8,89-83-8,Cc1ccc(C(C)C)c(O)c1,THYMOL,Thymol,5-methyl-2-(propan-2-yl)phenol,19451,DTXSID6034972,Cc1ccc(C(C)C)c(O)c1,"InChI=1S/C10H14O/c1-7(2)9-5-4-8(3)6-10(9)11/h4-7,11H,1-3H3",MGSRCZKZVOBKFT-UHFFFAOYSA-N,?,232.5,100372
100373,89-87-2,89-87-2,Cc1cc(C)c(cc1)[N+]([O-])=O,4-NITRO-M-XYLENE,"1,3-Dimethyl-4-nitrobenzene","2,4-dimethyl-1-nitrobenzene",19452,DTXSID2025135,Cc1cc(C)c(cc1)[N+]([O-])=O,"InChI=1S/C8H9NO2/c1-6-3-4-8(9(10)11)7(2)5-6/h3-5H,1-2H3",BBUPBICWUURTNP-UHFFFAOYSA-N,?,247.0,100373
100374,89-92-9,NOCAS_870422,Cc1ccccc1CBr,"BENZENE, 1-(BROMOMETHYL)-2-METHYL-",,,19453,DTXSID00870422,Cc1ccccc1CBr,"InChI=1S/C8H9Br/c1-7-4-2-3-5-8(7)6-9/h2-5H,6H2,1H3",WGVYCXYGPNNUQA-UHFFFAOYSA-N,?,217.0,100374
100376,89-95-2,89-95-2,Cc1ccccc1CO,"BENZENEMETHANOL, 2-METHYL-",2-Methylbenzyl alcohol,(2-methylphenyl)methanol,19455,DTXSID8059001,Cc1ccccc1CO,"InChI=1S/C8H10O/c1-7-4-2-3-5-8(7)6-9/h2-5,9H,6H2,1H3",XPNGNIFUDRPBFJ-UHFFFAOYSA-N,?,224.0,100376
100377,89-96-3,89-96-3,CCc1ccccc1Cl,"BENZENE, 1-CHLORO-2-ETHYL-","Benzene, 1-chloro-2-ethyl-",1-Chloro-2-ethylbenzene,19456,DTXSID40237474,CCc1ccccc1Cl,"InChI=1S/C8H9Cl/c1-2-7-5-3-4-6-8(7)9/h3-6H,2H2,1H3",CVGAWKYSRYXQOI-UHFFFAOYSA-N,?,178.4,100377
100378,89-98-5,89-98-5,O=Cc1ccccc1Cl,2-CHLOROBENZALDEHYDE,2-Chlorobenzaldehyde,2-chlorobenzaldehyde,19457,DTXSID5024764,O=Cc1ccccc1Cl,InChI=1S/C7H5ClO/c8-7-4-2-1-3-6(7)5-9/h1-5H,FPYUJUBAXZAQNL-UHFFFAOYSA-N,?,211.9,100378
100380,90-02-8,90-02-8,Oc1ccccc1C=O,O-HYDROXYBENZALDEHYDE,Salicylaldehyde,2-hydroxybenzaldehyde,19459,DTXSID1021792,Oc1ccccc1C=O,"InChI=1S/C7H6O2/c8-5-6-3-1-2-4-7(6)9/h1-5,9H",SMQUZDBALVYZAC-UHFFFAOYSA-N,?,197.0,100380
100381,90-04-0,90-04-0,COc1ccccc1N,2-METHOXYANILINE,2-Anisidine,2-methoxyaniline,19460,DTXSID5023877,COc1ccccc1N,"InChI=1S/C7H9NO/c1-9-7-5-3-2-4-6(7)8/h2-5H,8H2,1H3",VMPITZXILSNTON-UHFFFAOYSA-N,?,224.0,100381
100382,90-05-1,90-05-1,COc1ccccc1O,2-METHOXYPHENOL,2-Methoxyphenol,2-methoxyphenol,19461,DTXSID0023113,COc1ccccc1O,"InChI=1S/C7H8O2/c1-9-7-5-3-2-4-6(7)8/h2-5,8H,1H3",LHGVFZTZFXWLCP-UHFFFAOYSA-N,?,205.0,100382
100384,90-12-0,90-12-0,Cc1cccc2ccccc21,1-METHYLNAPHTHALENE,1-Methylnaphthalene,1-methylnaphthalene,19463,DTXSID9020877,Cc1cccc2ccccc21,"InChI=1S/C11H10/c1-9-5-4-7-10-6-2-3-8-11(9)10/h2-8H,1H3",QPUYECUOLPXSFR-UHFFFAOYSA-N,?,244.7,100384
100385,90-13-1,90-13-1,Clc1cccc2ccccc21,1-CHLORONAPHTHALENE,1-Chloronaphthalene,1-chloronaphthalene,19464,DTXSID2024791,Clc1cccc2ccccc21,InChI=1S/C10H7Cl/c11-10-7-3-5-8-4-1-2-6-9(8)10/h1-7H,JTPNRXUCIXHOKM-UHFFFAOYSA-N,?,259.0,100385
100386,90-14-2,90-14-2,Ic1cccc2ccccc21,1-IODONAPHTHALENE,"Naphthalene, 1-iodo-",1-Iodonaphthalene,19465,DTXSID3059004,Ic1cccc2ccccc21,InChI=1S/C10H7I/c11-10-7-3-5-8-4-1-2-6-9(8)10/h1-7H,NHPPIJMARIVBGU-UHFFFAOYSA-N,?,302.0,100386
100388,90-27-7,938-79-4,CC[C@@H](C(O)=O)c1ccccc1,"Benzeneacetic acid, .alpha.-ethyl-",(R)-(-)-2-Phenylbutyric acid,C10H12O2,19467,DTXSID50354863,CCC(C(O)=O)c1ccccc1,"InChI=1S/C10H12O2/c1-2-9(10(11)12)8-6-4-3-5-7-8/h3-7,9H,2H2,1H3,(H,11,12)",OFJWFSNDPCAWDK-UHFFFAOYSA-N,?,271.0,100388
100389,90-39-1,90-39-1,C1[C@@H]2C[C@@H](CN3CCCC[C@@H]32)[C@@H]2CCCCN21,L-SPARTEINE,Sparteine,sparteine,19468,DTXSID4023591,C1C2CC(CN3CCCCC32)C2CCCCN21,"InChI=1S/C15H26N2/c1-3-7-16-11-13-9-12(14(16)5-1)10-17-8-4-2-6-15(13)17/h12-15H,1-11H2",SLRCCWJSBJZJBV-UHFFFAOYSA-N,?,325.0,100389
100390,90-41-5,90-41-5,Nc1ccccc1-c1ccccc1,2-AMINOBIPHENYL,2-Biphenylamine,biphenyl-2-amine,19469,DTXSID3030189,Nc1ccccc1-c1ccccc1,"InChI=1S/C12H11N/c13-12-9-5-4-8-11(12)10-6-2-1-3-7-10/h1-9H,13H2",TWBPWBPGNQWFSJ-UHFFFAOYSA-N,?,299.0,100390
100392,90-43-7,90-43-7,Oc1ccccc1-c1ccccc1,2-PHENYLPHENOL,2-Phenylphenol,biphenyl-2-ol,19471,DTXSID2021151,Oc1ccccc1-c1ccccc1,"InChI=1S/C12H10O/c13-12-9-5-4-8-11(12)10-6-2-1-3-7-10/h1-9,13H",LLEMOWNGBBNAJR-UHFFFAOYSA-N,?,286.0,100392
100393,90-47-1,90-47-1,O=C1c2ccccc2Oc2ccccc21,9H-XANTHEN-9-ONE,Xanthone,9H-xanthen-9-one,19472,DTXSID6021795,O=C1c2ccccc2Oc2ccccc21,InChI=1S/C13H8O2/c14-13-9-5-1-3-7-11(9)15-12-8-4-2-6-10(12)13/h1-8H,JNELGWHKGNBSMD-UHFFFAOYSA-N,?,351.0,100393
100394,90-90-4,90-90-4,O=C(c1ccccc1)c1ccc(Br)cc1,"METHANONE, (4-BROMOPHENYL)PHENYL-",4-Bromobenzophenone,(4-bromophenyl)-phenylmethanone,19473,DTXSID0075366,O=C(c1ccccc1)c1ccc(Br)cc1,InChI=1S/C13H9BrO/c14-12-8-6-11(7-9-12)13(15)10-4-2-1-3-5-10/h1-9H,KEOLYBMGRQYQTN-UHFFFAOYSA-N,?,350.0,100394
100396,91-00-9,91-00-9,NC(c1ccccc1)c1ccccc1,Benzhydrylamin,Benzhydrylamine,di(phenyl)methanamine,19475,DTXSID00238346,NC(c1ccccc1)c1ccccc1,"InChI=1S/C13H13N/c14-13(11-7-3-1-4-8-11)12-9-5-2-6-10-12/h1-10,13H,14H2",MGHPNCMVUAKAIE-UHFFFAOYSA-N,?,304.0,100396
100397,91-01-0,91-01-0,OC(c1ccccc1)c1ccccc1,BENZHYDROL,Diphenylmethanol,C13H12O,19476,DTXSID2059015,OC(c1ccccc1)c1ccccc1,"InChI=1S/C13H12O/c14-13(11-7-3-1-4-8-11)12-9-5-2-6-10-12/h1-10,13-14H",QILSFLSDHQAZET-UHFFFAOYSA-N,?,298.0,100397
100398,91-02-1,91-02-1,O=C(c1cccc[n]1)c1ccccc1,PHENYL-A-PYRIDYLKETONE,"Methanone, phenyl-2-pyridinyl-",phenyl-pyridin-2-ylmethanone,19477,DTXSID7059016,O=C(c1cccc[n]1)c1ccccc1,InChI=1S/C12H9NO/c14-12(10-6-2-1-3-7-10)11-8-4-5-9-13-11/h1-9H,GCSHUYKULREZSJ-UHFFFAOYSA-N,?,317.0,100398
100400,91-16-7,91-16-7,COc1ccccc1OC,"1,2-DIMETHOXYBENZENE","1,2-Dimethoxybenzene","1,2-dimethoxybenzene",19479,DTXSID7047065,COc1ccccc1OC,"InChI=1S/C8H10O2/c1-9-7-5-3-4-6-8(7)10-2/h3-6H,1-2H3",ABDKAPXRBAPSQN-UHFFFAOYSA-N,?,206.0,100400
100401,91-17-8|493-01-6|493-02-7,91-17-8,C1CCCC2CCCCC21,"DECAHYDRONAPHTHALENE, CIS-BICYCLO[4.4.0]DECANE, TRANS-BICYCLO[4.4.0]DECANE",Decalin,decahydronaphthalene,19480|20986|20987,DTXSID1024912,C1CCCC2CCCCC21,"InChI=1S/C10H18/c1-2-6-10-8-4-3-7-9(10)5-1/h9-10H,1-8H2",NNBZCPXTIHJBJL-UHFFFAOYSA-N,?,179.533333333333,100401
100402,91-19-0,91-19-0,c1c[n]c2ccccc2[n]1,QUINOXALINE,Quinoxaline,quinoxaline,19481,DTXSID6049432,c1c[n]c2ccccc2[n]1,InChI=1S/C8H6N2/c1-2-4-8-7(3-1)9-5-6-10-8/h1-6H,XSCHRSMBECNVNS-UHFFFAOYSA-N,?,229.5,100402
100404,91-21-4,91-21-4,C1NCCc2ccccc21,"Isoquinoline, 1,2,3,4-tetrahydro-","1,2,3,4-Tetrahydroisoquinoline","1,2,3,4-tetrahydroisoquinoline",19483,DTXSID6026115,C1NCCc2ccccc21,"InChI=1S/C9H11N/c1-2-4-9-7-10-6-5-8(9)3-1/h1-4,10H,5-7H2",UWYZHKAOTLEWKK-UHFFFAOYSA-N,?,232.5,100404
100405,91-22-5,91-22-5,c1cccc2[n]cccc21,QUINOLINE,Quinoline,C9H7N,19484,DTXSID1021798,c1cccc2[n]cccc21,InChI=1S/C9H7N/c1-2-6-9-8(4-1)5-3-7-10-9/h1-7H,SMWDFEZZVXVKRB-UHFFFAOYSA-N,?,237.1,100405
100406,91-23-6,91-23-6,COc1ccccc1[N+]([O-])=O,2-NITROANISOLE,1-Methoxy-2-nitrobenzene,1-methoxy-2-nitrobenzene,19485,DTXSID3020962,COc1ccccc1[N+]([O-])=O,"InChI=1S/C7H7NO3/c1-11-7-5-3-2-4-6(7)8(9)10/h2-5H,1H3",CFBYEGUGFPZCNF-UHFFFAOYSA-N,?,277.0,100406
100408,91-55-4,91-55-4,Cc1c2ccccc2[nH]c1C,"1H-INDOLE, 2,3-DIMETHYL-","1H-Indole, 2,3-dimethyl-","2,3-Dimethyl-1H-indole",19487,DTXSID6059027,Cc1c2ccccc2[nH]c1C,"InChI=1S/C10H11N/c1-7-8(2)11-10-6-4-3-5-9(7)10/h3-6,11H,1-2H3",PYFVEIDRTLBMHG-UHFFFAOYSA-N,?,285.0,100408
100409,91-57-6,91-57-6,Cc1cc2ccccc2cc1,2-METHYLNAPHTHALENE,2-Methylnaphthalene,2-methylnaphthalene,19488,DTXSID4020878,Cc1cc2ccccc2cc1,"InChI=1S/C11H10/c1-9-6-7-10-4-2-3-5-11(10)8-9/h2-8H,1H3",QIMMUPPBPVKWKM-UHFFFAOYSA-N,?,241.1,100409
100410,91-58-7,91-58-7,Clc1cc2ccccc2cc1,2-CHLORONAPHTHALENE,2-Chloronaphthalene,2-chloronaphthalene,19489,DTXSID8023971,Clc1cc2ccccc2cc1,InChI=1S/C10H7Cl/c11-10-6-5-8-3-1-2-4-9(8)7-10/h1-7H,CGYGETOMCSJHJU-UHFFFAOYSA-N,?,256.0,100410
100412,91-60-1,91-60-1,Sc1cc2ccccc2cc1,2-Naphthalenethiol,2-Naphthalenethiol,Naphthalene-2-thiol,19491,DTXSID1059028,Sc1cc2ccccc2cc1,"InChI=1S/C10H8S/c11-10-6-5-8-3-1-2-4-9(8)7-10/h1-7,11H",RFCQDOVPMUSZMN-UHFFFAOYSA-N,?,288.0,100412
100413,91-62-3,91-62-3,Cc1cc2ccc[n]c2cc1,6-METHYLQUINOLINE,6-Methylquinoline,6-methylquinoline,19492,DTXSID3020887,Cc1cc2ccc[n]c2cc1,"InChI=1S/C10H9N/c1-8-4-5-10-9(7-8)3-2-6-11-10/h2-7H,1H3",LUYISICIYVKBTA-UHFFFAOYSA-N,?,258.6,100413
100414,91-63-4,91-63-4,Cc1ccc2ccccc2[n]1,2-METHYLQUINOLINE,Quinaldine,2-methylquinoline,19493,DTXSID3040271,Cc1ccc2ccccc2[n]1,"InChI=1S/C10H9N/c1-8-6-7-9-4-2-3-5-10(9)11-8/h2-7H,1H3",SMUQFGGVLNAIOZ-UHFFFAOYSA-N,?,246.5,100414
100416,91-65-6,91-65-6,CCN(CC)C1CCCCC1,"Cyclohexanamine, N,N-diethyl-","N,N-Diethylcyclohexylamine","N,N-diethylcyclohexanamine",19495,DTXSID6021799,CCN(CC)C1CCCCC1,"InChI=1S/C10H21N/c1-3-11(4-2)10-8-6-5-7-9-10/h10H,3-9H2,1-2H3",CIXSDMKDSYXUMJ-UHFFFAOYSA-N,?,193.0,100416
100417,91-66-7,91-66-7,CCN(CC)c1ccccc1,"N,N-DIETHYLANILINE","N,N-Diethylaniline","N,N-diethylaniline",19496,DTXSID8021800,CCN(CC)c1ccccc1,"InChI=1S/C10H15N/c1-3-11(4-2)10-8-6-5-7-9-10/h5-9H,3-4H2,1-2H3",GGSUCNLOZRCGPQ-UHFFFAOYSA-N,?,216.3,100417
100418,91-67-8,91-67-8,Cc1cccc(c1)N(CC)CC,"Benzenamine, N,N-diethyl-3-methyl-","N,N-Diethyl-m-toluidine","N,N-diethyl-3-methylaniline",19497,DTXSID1052610,Cc1cccc(c1)N(CC)CC,"InChI=1S/C11H17N/c1-4-12(5-2)11-8-6-7-10(3)9-11/h6-9H,4-5H2,1-3H3",CIPVVROJHKLHJI-UHFFFAOYSA-N,?,231.5,100418
100420,91-94-1,91-94-1,Nc1ccc(cc1Cl)-c1cc(Cl)c(N)cc1,"3,3'-DICHLOROBENZIDINE","3,3'-Dichlorobenzidine","3,3'-dichlorobiphenyl-4,4'-diamine",19499,DTXSID6020432,Nc1ccc(cc1Cl)-c1cc(Cl)c(N)cc1,"InChI=1S/C12H10Cl2N2/c13-9-5-7(1-3-11(9)15)8-2-4-12(16)10(14)6-8/h1-6H,15-16H2",HUWXDEQWWKGHRV-UHFFFAOYSA-N,?,368.0,100420
100421,92-06-8,92-06-8,c1c(cccc1-c1ccccc1)-c1ccccc1,m-TERPHENYL,"1,1':3',1''-Terphenyl","1,1':3',1''-terphenyl",19500,DTXSID2029117,c1c(cccc1-c1ccccc1)-c1ccccc1,InChI=1S/C18H14/c1-3-8-15(9-4-1)17-12-7-13-18(14-17)16-10-5-2-6-11-16/h1-14H,YJTKZCDBKVTVBY-UHFFFAOYSA-N,?,363.0,100421
100422,92-36-4,92-36-4,Cc1cc2[s]c([n]c2cc1)-c1ccc(N)cc1,"Benzenamine, 4-(6-methyl-2-benzothiazolyl)-",Dehydrothio-4-toluidine,"4-(6-methyl-1,3-benzothiazol-2-yl)aniline",19501,DTXSID5024502,Cc1cc2[s]c([n]c2cc1)-c1ccc(N)cc1,"InChI=1S/C14H12N2S/c1-9-2-7-12-13(8-9)17-14(16-12)10-3-5-11(15)6-4-10/h2-8H,15H2,1H3",XRTJYEIMLZALBD-UHFFFAOYSA-N,?,434.0,100422
100424,92-50-2,92-50-2,CCN(CCO)c1ccccc1,"ETHANOL, 2-(ETHYLPHENYLAMINO)-","Ethanol, 2-(ethylphenylamino)-",2-(ethyl-phenylamino)ethanol,19503,DTXSID3059056,CCN(CCO)c1ccccc1,"InChI=1S/C10H15NO/c1-2-11(8-9-12)10-6-4-3-5-7-10/h3-7,12H,2,8-9H2,1H3",HYVGFUIWHXLVNV-UHFFFAOYSA-N,?,268.0,100424
100425,92-51-3,92-51-3,C1CCCCC1C1CCCCC1,DICYCLOHEXYL,Dicyclohexyl,"1,1'-bi(cyclohexyl)",19504,DTXSID8021802,C1CCCCC1C1CCCCC1,"InChI=1S/C12H22/c1-3-7-11(8-4-1)12-9-5-2-6-10-12/h11-12H,1-10H2",WVIIMZNLDWSIRH-UHFFFAOYSA-N,?,238.0,100425
100426,92-52-4,92-52-4,c1ccccc1-c1ccccc1,BIPHENYL,Biphenyl,biphenyl,19505,DTXSID4020161,c1ccccc1-c1ccccc1,InChI=1S/C12H10/c1-3-7-11(8-4-1)12-9-5-2-6-10-12/h1-10H,ZUOUZKKEUPVFJK-UHFFFAOYSA-N,?,256.1,100426
100428,92-59-1,92-59-1,CCN(Cc1ccccc1)c1ccccc1,"Benzenemethanamine, N-ethyl-N-phenyl-",N-Ethyl-N-phenyl benzylamine,N-benzyl-N-ethylaniline,19507,DTXSID0025315,CCN(Cc1ccccc1)c1ccccc1,"InChI=1S/C15H17N/c1-2-16(15-11-7-4-8-12-15)13-14-9-5-3-6-10-14/h3-12H,2,13H2,1H3",HSZCJVZRHXPCIA-UHFFFAOYSA-N,?,288.0,100428
100429,92-66-0,92-66-0,Brc1ccc(cc1)-c1ccccc1,4-BROMOBIPHENYL,4-Bromobiphenyl,4-bromobiphenyl,19508,DTXSID4024640,Brc1ccc(cc1)-c1ccccc1,InChI=1S/C12H9Br/c13-12-8-6-11(7-9-12)10-4-2-1-3-5-10/h1-9H,PKJBWOWQJHHAHG-UHFFFAOYSA-N,?,310.0,100429
100430,92-67-1,92-67-1,Nc1ccc(cc1)-c1ccccc1,4-AMINOBIPHENYL,4-Biphenylamine,biphenyl-4-amine,19509,DTXSID5020071,Nc1ccc(cc1)-c1ccccc1,"InChI=1S/C12H11N/c13-12-8-6-11(7-9-12)10-4-2-1-3-5-10/h1-9H,13H2",DMVOXQPQNTYEKQ-UHFFFAOYSA-N,?,302.0,100430
100432,92-71-7,92-71-7,c1[n]c(oc1-c1ccccc1)-c1ccccc1,"OXAZOLE, 2,5-DIPHENYL-","Oxazole, 2,5-diphenyl-","2,5-di(phenyl)-1,3-oxazole",19511,DTXSID7059060,c1[n]c(oc1-c1ccccc1)-c1ccccc1,InChI=1S/C15H11NO/c1-3-7-12(8-4-1)14-11-16-15(17-14)13-9-5-2-6-10-13/h1-11H,CNRNYORZJGVOSY-UHFFFAOYSA-N,?,360.0,100432
100433,92-81-9,92-81-9,C1c2ccccc2Nc2ccccc21,Acridan,"Acridine, 9,10-dihydro-","9,10-Dihydroacridine",19512,DTXSID4073887,C1c2ccccc2Nc2ccccc21,"InChI=1S/C13H11N/c1-3-7-12-10(5-1)9-11-6-2-4-8-13(11)14-12/h1-8,14H,9H2",HJCUTNIGJHJGCF-UHFFFAOYSA-N,?,347.0,100433
100434,92-83-1,92-83-1,C1c2ccccc2Oc2ccccc21,9H-XANTHENE,9H-Xanthene,9H-Xanthene,19513,DTXSID1059070,C1c2ccccc2Oc2ccccc21,"InChI=1S/C13H10O/c1-3-7-12-10(5-1)9-11-6-2-4-8-13(11)14-12/h1-8H,9H2",GJCOSYZMQJWQCA-UHFFFAOYSA-N,?,311.0,100434
100436,92-85-3,92-85-3,c1cccc2Sc3ccccc3Sc21,THIANTHRENE,Thianthrene,Thianthrene,19515,DTXSID6059071,c1cccc2Sc3ccccc3Sc21,InChI=1S/C12H8S2/c1-2-6-10-9(5-1)13-11-7-3-4-8-12(11)14-10/h1-8H,GVIJJXMXTUZIOD-UHFFFAOYSA-N,?,365.0,100436
100437,92-86-4,92-86-4,Brc1ccc(cc1)-c1ccc(Br)cc1,"4,4'-DIBROMOBIPHENYL","1,1'-Biphenyl, 4,4'-dibromo-",1-bromo-4-(4-bromophenyl)benzene,19516,DTXSID1059072,Brc1ccc(cc1)-c1ccc(Br)cc1,InChI=1S/C12H8Br2/c13-11-5-1-9(2-6-11)10-3-7-12(14)8-4-10/h1-8H,HQJQYILBCQPYBI-UHFFFAOYSA-N,?,357.5,100437
100438,92-87-5,92-87-5,Nc1ccc(cc1)-c1ccc(N)cc1,BENZIDINE,Benzidine,"biphenyl-4,4'-diamine",19517,DTXSID2020137,Nc1ccc(cc1)-c1ccc(N)cc1,"InChI=1S/C12H12N2/c13-11-5-1-9(2-6-11)10-3-7-12(14)8-4-10/h1-8H,13-14H2",HFACYLZERDEVSX-UHFFFAOYSA-N,?,401.0,100438
100440,92-93-3,92-93-3,[O-][N+](=O)c1ccc(cc1)-c1ccccc1,P-NITROBIPHENYL,4-Nitrobiphenyl,4-nitrobiphenyl,19519,DTXSID9041522,[O-][N+](=O)c1ccc(cc1)-c1ccccc1,InChI=1S/C12H9NO2/c14-13(15)12-8-6-11(7-9-12)10-4-2-1-3-5-10/h1-9H,BAJQRLZAPXASRD-UHFFFAOYSA-N,?,340.0,100440
100441,92-94-4,92-94-4,c1cc(ccc1-c1ccccc1)-c1ccccc1,"1,1':4',1''-TERPHENYL","1,1':4',1''-Terphenyl","1,1':4',1''-terphenyl",19520,DTXSID6029121,c1cc(ccc1-c1ccccc1)-c1ccccc1,InChI=1S/C18H14/c1-3-7-15(8-4-1)17-11-13-18(14-12-17)16-9-5-2-6-10-16/h1-14H,XJKSTNDFUHDPQJ-UHFFFAOYSA-N,?,376.0,100441
100442,92-95-5,92-95-5,O=C=Nc1ccc(cc1)-c1ccccc1,p-Xenylcarbimide,4-Biphenylyl isocyanate,C13H9NO,19521,DTXSID30394186,O=C=Nc1ccc(cc1)-c1ccccc1,InChI=1S/C13H9NO/c15-10-14-13-8-6-12(7-9-13)11-4-2-1-3-5-11/h1-9H,WIRPZDICFIIBRF-UHFFFAOYSA-N,?,283.0,100442
100444,93-02-7,93-02-7,COc1ccc(cc1C=O)OC,"Benzaldehyde, 2,5-dimethoxy-","2,5-Dimethoxybenzaldehyde","2,5-dimethoxybenzaldehyde",19523,DTXSID5052620,COc1ccc(cc1C=O)OC,"InChI=1S/C9H10O3/c1-11-8-3-4-9(12-2)7(5-8)6-10/h3-6H,1-2H3",AFUKNJHPZAVHGQ-UHFFFAOYSA-N,?,270.0,100444
100445,93-03-8,93-03-8,COc1ccc(CO)cc1OC,"Benzenemethanol, 3,4-dimethoxy-","Benzenemethanol, 3,4-dimethoxy-","(3,4-dimethoxyphenyl)methanol",19524,DTXSID1059076,COc1ccc(CO)cc1OC,"InChI=1S/C9H12O3/c1-11-8-4-3-7(6-10)5-9(8)12-2/h3-5,10H,6H2,1-2H3",OEGPRYNGFWGMMV-UHFFFAOYSA-N,?,298.0,100445
100446,93-04-9,93-04-9,COc1cc2ccccc2cc1,"NAPHTHALENE, 2-METHOXY-",2-Methoxynaphthalene,2-methoxynaphthalene,19525,DTXSID7044392,COc1cc2ccccc2cc1,"InChI=1S/C11H10O/c1-12-11-7-6-9-4-2-3-5-10(9)8-11/h2-8H,1H3",LUZDYPLAQQGJEA-UHFFFAOYSA-N,?,274.0,100446
100448,93-08-3,93-08-3,CC(=O)c1cc2ccccc2cc1,1-(2-NAPHTHALENYL)ETHANONE,2'-Acetonaphthone,1-(naphthalen-2-yl)ethanone,19527,DTXSID2041389,CC(=O)c1cc2ccccc2cc1,"InChI=1S/C12H10O/c1-9(13)11-7-6-10-4-2-3-5-12(10)8-11/h2-8H,1H3",XSAYZAUNJMRRIR-UHFFFAOYSA-N,?,302.0,100448
100449,93-15-2|6380-24-1,93-15-2,COc1ccc(CC=C)cc1OC,"METHYLEUGENOL, 4-Allyl-1,2-dimethoxy-benzene",Methyleugenol,C11H14O2,19528|23920,DTXSID5025607,COc1ccc(CC=C)cc1OC,"InChI=1S/C11H14O2/c1-4-5-9-6-7-10(12-2)11(8-9)13-3/h4,6-8H,1,5H2,2-3H3",ZYEMGPIYFIJGTP-UHFFFAOYSA-N,?,262.6,100449
100450,93-16-3,93-16-3,CC=Cc1cc(OC)c(cc1)OC,"Benzene, 1,2-dimethoxy-4-(1-propenyl)-",4-Prop-1-enylveratrole,"1,2-dimethoxy-4-(prop-1-en-1-yl)benzene",19529,DTXSID0052621,CC=Cc1cc(OC)c(cc1)OC,"InChI=1S/C11H14O2/c1-4-5-9-6-7-10(12-2)11(8-9)13-3/h4-8H,1-3H3/b5-4+",NNWHUJCUHAELCL-SNAWJCMRSA-N,?,270.5,100450
100452,93-26-5,93-26-5,CC(=O)Nc1ccccc1OC,O-METHOXYACETANILIDE,N-(2-Methoxyphenyl)acetamide,N-(2-methoxyphenyl)acetamide,19531,DTXSID0052623,CC(=O)Nc1ccccc1OC,"InChI=1S/C9H11NO2/c1-7(11)10-8-5-3-4-6-9(8)12-2/h3-6H,1-2H3,(H,10,11)",FGOFNVXHDGQVBG-UHFFFAOYSA-N,?,304.0,100452
100453,93-28-7,93-28-7,CC(=O)Oc1ccc(CC=C)cc1OC,EUGENYL ACETATE,Acetyleugenol,4-allyl-2-methoxyphenyl acetate,19532,DTXSID5052624,CC(=O)Oc1ccc(CC=C)cc1OC,"InChI=1S/C12H14O3/c1-4-5-10-6-7-11(15-9(2)13)12(8-10)14-3/h4,6-8H,1,5H2,2-3H3",SCCDQYPEOIRVGX-UHFFFAOYSA-N,?,281.0,100453
100454,93-37-8,93-37-8,Cc1cc2[n]c(C)ccc2cc1,"Quinoline, 2,7-dimethyl-","Quinoline, 2,7-dimethyl-","2,7-Dimethylquinoline",19533,DTXSID0059085,Cc1cc2[n]c(C)ccc2cc1,"InChI=1S/C11H11N/c1-8-3-5-10-6-4-9(2)12-11(10)7-8/h3-7H,1-2H3",QXKPLNCZSFACPU-UHFFFAOYSA-N,?,264.5,100454
100456,93-51-6,93-51-6,Cc1ccc(O)c(c1)OC,4-Methyl-2-methoxyphenol,2-Methoxy-4-methylphenol,2-methoxy-4-methylphenol,19535,DTXSID6047105,Cc1ccc(O)c(c1)OC,"InChI=1S/C8H10O2/c1-6-3-4-7(9)8(5-6)10-2/h3-5,9H,1-2H3",PETRWTHZSKVLRE-UHFFFAOYSA-N,?,221.0,100456
100457,93-53-8,93-53-8,CC(C=O)c1ccccc1,"Benzeneacetaldehyde, .alpha.-methyl-",Hydratropaldehyde,hydratropaldehyde,19536,DTXSID0052629,CC(C=O)c1ccccc1,"InChI=1S/C9H10O/c1-8(7-10)9-5-3-2-4-6-9/h2-8H,1H3",IQVAERDLDAZARL-UHFFFAOYSA-N,?,203.5,100457
100458,93-54-9,93-54-9,CCC(O)c1ccccc1,?-Ethylbenzyl alcohol,1-Phenyl-1-propanol,1-phenylpropan-1-ol,19537,DTXSID2044474,CCC(O)c1ccccc1,"InChI=1S/C9H12O/c1-2-9(10)8-6-4-3-5-7-8/h3-7,9-10H,2H2,1H3",DYUQAZSOFZSPHD-UHFFFAOYSA-N,?,219.0,100458
100460,93-56-1,93-56-1,OCC(O)c1ccccc1,"1,2-Ethanediol, 1-phenyl-",Styrene glycol,"1-phenylethane-1,2-diol",19539,DTXSID8042422,OCC(O)c1ccccc1,"InChI=1S/C8H10O2/c9-6-8(10)7-4-2-1-3-5-7/h1-5,8-10H,6H2",PWMWNFMRSKOCEY-UHFFFAOYSA-N,?,273.0,100460