ChemID,source_casrn,CAS,SMILES,NAME,preferred_name,iupac,MPID,dsstox_substance_id,Canonical_QSARr,InChI_Code_QSARr,InChI Key_QSARr,Salt_Solvent,Salt_Solvent_ID,MP,ID
101352,96-66-2,96-66-2,CC(C)(C)c1cc(cc(C)c1O)Sc1cc(C)c(O)c(c1)C(C)(C)C,"Phenol, 4,4'-thiobis(2-(1,1-dimethylethyl)-6-met","4,4'-Thiobis[2-tert-butyl-6-methylphenol]",2-tert-butyl-4-(3-tert-butyl-4-hydroxy-5-methylphenyl)sulfanyl-6-methylphenol,28643,DTXSID8059136,CC(C)(C)c1cc(cc(C)c1O)Sc1cc(C)c(O)c(c1)C(C)(C)C,"InChI=1S/C22H30O2S/c1-13-9-15(11-17(19(13)23)21(3,4)5)25-16-10-14(2)20(24)18(12-16)22(6,7)8/h9-12,23-24H,1-8H3",YFHKLSPMRRWLKI-UHFFFAOYSA-N,?,,125.5,101352
101354,96-76-4,96-76-4,CC(C)(C)c1cc(ccc1O)C(C)(C)C,"2,4-DI-T-BUTYLPHENOL","2,4-Di-tert-butylphenol","2,4-di-tert-butylphenol",28645,DTXSID2026602,CC(C)(C)c1cc(ccc1O)C(C)(C)C,"InChI=1S/C14H22O/c1-13(2,3)10-7-8-12(15)11(9-10)14(4,5)6/h7-9,15H,1-6H3",ICKWICRCANNIBI-UHFFFAOYSA-N,?,,56.5,101354
101355,96-80-0,96-80-0,CC(C)N(CCO)C(C)C,2-(BIS(1-METHYLETHYL)AMINO)ETHANOL,2-(Diisopropylamino)ethanol,2-[di(propan-2-yl)amino]ethanol,28646,DTXSID6021822,CC(C)N(CCO)C(C)C,"InChI=1S/C8H19NO/c1-7(2)9(5-6-10)8(3)4/h7-8,10H,5-6H2,1-4H3",ZYWUVGFIXPNBDL-UHFFFAOYSA-N,?,,-39.0,101355
101356,96-83-3,96-83-3,CCC(Cc1c(I)cc(I)c(N)c1I)C(O)=O,Iopanoic acid,Iopanoic acid,"2-(3-amino-2,4,6-triiodobenzyl)butanoic acid",28647,DTXSID6023159,CCC(Cc1c(I)cc(I)c(N)c1I)C(O)=O,"InChI=1S/C11H12I3NO2/c1-2-5(11(16)17)3-6-7(12)4-8(13)10(15)9(6)14/h4-5H,2-3,15H2,1H3,(H,16,17)",OIRFJRBSRORBCM-UHFFFAOYSA-N,?,,155.2,101356
101358,96-88-8,96-88-8,CN1CCCCC1C(=O)Nc1c(C)cccc1C,"2-PIPERIDINECARBOXAMIDE, N-(2,6-DIMETHYLPHENYL)-",Mepivacaine,"N-(2,6-dimethylphenyl)-1-methylpiperidine-2-carboxamide",28649,DTXSID9023259,CN1CCCCC1C(=O)Nc1c(C)cccc1C,"InChI=1S/C15H22N2O/c1-11-7-6-8-12(2)14(11)16-15(18)13-9-4-5-10-17(13)3/h6-8,13H,4-5,9-10H2,1-3H3,(H,16,18)",INWLQCZOYSRPNW-UHFFFAOYSA-N,?,,150.5,101358
101359,96-91-3,96-91-3,Nc1cc(cc(c1O)[N+]([O-])=O)[N+]([O-])=O,"2-AMINO-4,6-DINITROPHENOL","2-Amino-4,6-dinitrophenol","2-amino-4,6-dinitrophenol",28650,DTXSID5024479,Nc1cc(cc(c1O)[N+]([O-])=O)[N+]([O-])=O,"InChI=1S/C6H5N3O5/c7-4-1-3(8(11)12)2-5(6(4)10)9(13)14/h1-2,10H,7H2",QXYMVUZOGFVPGH-UHFFFAOYSA-N,?,,169.0,101359
101360,96-96-8,96-96-8,COc1cc(c(N)cc1)[N+]([O-])=O,"BENZENAMINE, 4-METHOXY-2-NITRO-",4-Methoxy-2-nitroaniline,C7H8N2O3,28651,DTXSID3044750,COc1cc(c(N)cc1)[N+]([O-])=O,"InChI=1S/C7H8N2O3/c1-12-5-2-3-6(8)7(4-5)9(10)11/h2-4H,8H2,1H3",QFMJFXFXQAFGBO-UHFFFAOYSA-N,?,,124.0,101360
101362,96-99-1,96-99-1,[O-][N+](=O)c1cc(ccc1Cl)C(O)=O,"Benzoic acid, 4-chloro-3-nitro-","Benzoic acid, 4-chloro-3-nitro-",4-Chloro-3-nitrobenzoic acid,28653,DTXSID7059143,[O-][N+](=O)c1cc(ccc1Cl)C(O)=O,"InChI=1S/C7H4ClNO4/c8-5-2-1-4(7(10)11)3-6(5)9(12)13/h1-3H,(H,10,11)",DFXQXFGFOLXAPO-UHFFFAOYSA-N,?,,182.8,101362
101363,97-00-7,97-00-7,[O-][N+](=O)c1cc(ccc1Cl)[N+]([O-])=O,"2,4-DINITROCHLOROBENZENE","1-Chloro-2,4-dinitrobenzene","1-chloro-2,4-dinitrobenzene",28654,DTXSID6020278,[O-][N+](=O)c1cc(ccc1Cl)[N+]([O-])=O,InChI=1S/C6H3ClN2O4/c7-5-2-1-4(8(10)11)3-6(5)9(12)13/h1-3H,VYZAHLCBVHPDDF-UHFFFAOYSA-N,?,,53.0,101363
101364,97-02-9,97-02-9,Nc1ccc(cc1[N+]([O-])=O)[N+]([O-])=O,"2,4-DINITROANILINE","2,4-Dinitroaniline","2,4-dinitroaniline",28655,DTXSID1021823,Nc1ccc(cc1[N+]([O-])=O)[N+]([O-])=O,"InChI=1S/C6H5N3O4/c7-5-2-1-4(8(10)11)3-6(5)9(12)13/h1-3H,7H2",LXQOQPGNCGEELI-UHFFFAOYSA-N,?,,180.0,101364
101366,97-16-5,97-16-5,O=S(=O)(Oc1ccc(Cl)cc1Cl)c1ccccc1,GENITE,"2,4-Dichlorophenyl benzenesulfonate","2,4-dichlorophenyl benzenesulfonate",28657,DTXSID5020447,O=S(=O)(Oc1ccc(Cl)cc1Cl)c1ccccc1,"InChI=1S/C12H8Cl2O3S/c13-9-6-7-12(11(14)8-9)17-18(15,16)10-4-2-1-3-5-10/h1-8H",OZFAFGSSMRRTDW-UHFFFAOYSA-N,?,,45.5,101366
101367,97-18-7,97-18-7,Oc1c(cc(Cl)cc1Cl)Sc1cc(Cl)cc(Cl)c1O,"Phenol, 2,2'-thiobis 4,6-dichloro-",Bithionol,"2,2'-sulfanediylbis(4,6-dichlorophenol)",28658,DTXSID9021342,Oc1c(cc(Cl)cc1Cl)Sc1cc(Cl)cc(Cl)c1O,"InChI=1S/C12H6Cl4O2S/c13-5-1-7(15)11(17)9(3-5)19-10-4-6(14)2-8(16)12(10)18/h1-4,17-18H",JFIOVJDNOJYLKP-UHFFFAOYSA-N,?,,188.0,101367
101368,97-23-4,97-23-4,Oc1ccc(Cl)cc1Cc1cc(Cl)ccc1O,"PHENOL,2,2'-METHYLENEBIS 4-CHLORO-",Dichlorophen,"2,2'-methanediylbis(4-chlorophenol)",28659,DTXSID6021824,Oc1ccc(Cl)cc1Cc1cc(Cl)ccc1O,"InChI=1S/C13H10Cl2O2/c14-10-1-3-12(16)8(6-10)5-9-7-11(15)2-4-13(9)17/h1-4,6-7,16-17H,5H2",MDNWOSOZYLHTCG-UHFFFAOYSA-N,?,,177.5,101368
101370,97-25-6,97-25-6,O[C@H]1[C@H](O)[C@H](O[C@@H](OCC(Cl)(Cl)Cl)[C@@H]1O)C(O)=O,Urochloralic Acid,Urochloralic acid,"(2S,3S,4S,5R,6R)-3,4,5-trihydroxy-6-(2,2,2-trichloroethoxy)oxane-2-carboxylic acid",28661,DTXSID30242658,OC1C(O)C(OC(OCC(Cl)(Cl)Cl)C1O)C(O)=O,"InChI=1S/C8H11Cl3O7/c9-8(10,11)1-17-7-4(14)2(12)3(13)5(18-7)6(15)16/h2-5,7,12-14H,1H2,(H,15,16)",IQOASJJGUQMXDW-UHFFFAOYSA-N,?,,142.0,101370
101371,97-30-3,97-30-3,CO[C@H]1O[C@H](CO)[C@@H](O)[C@H](O)[C@H]1O,".alpha.-D-Glucopyranoside, methyl",Methyl alpha-D-glucopyranoside,methyl alpha-D-glucopyranoside,28662,DTXSID7026605,COC1OC(CO)C(O)C(O)C1O,"InChI=1S/C7H14O6/c1-12-7-6(11)5(10)4(9)3(2-8)13-7/h3-11H,2H2,1H3",HOVAGTYPODGVJG-UHFFFAOYSA-N,?,,168.0,101371
101372,97-36-9,97-36-9,CC(=O)CC(=O)Nc1ccc(C)cc1C,"Butanamide, N-(2,4-dimethylphenyl)-3-oxo-","N-(2,4-Dimethylphenyl)-3-oxobutanamide",C12H15NO2,28663,DTXSID4040719,CC(=O)CC(=O)Nc1ccc(C)cc1C,"InChI=1S/C12H15NO2/c1-8-4-5-11(9(2)6-8)13-12(15)7-10(3)14/h4-6H,7H2,1-3H3,(H,13,15)",HGVIAKXYAZRSEG-UHFFFAOYSA-N,?,,90.0,101372
101374,97-51-8,97-51-8,[O-][N+](=O)c1ccc(O)c(c1)C=O,5-Nitrosalicylaldehyde,"Benzaldehyde, 2-hydroxy-5-nitro-",2-Hydroxy-5-nitrobenzaldehyde,28665,DTXSID6059154,[O-][N+](=O)c1ccc(O)c(c1)C=O,"InChI=1S/C7H5NO4/c9-4-5-3-6(8(11)12)1-2-7(5)10/h1-4,10H",IHFRMUGEILMHNU-UHFFFAOYSA-N,?,,129.0,101374
101375,97-52-9,97-52-9,COc1cc(ccc1N)[N+]([O-])=O,"Benzenamine, 2-methoxy-4-nitro-",2-Methoxy-4-nitroaniline,2-methoxy-4-nitroaniline,28666,DTXSID0038700,COc1cc(ccc1N)[N+]([O-])=O,"InChI=1S/C7H8N2O3/c1-12-7-4-5(9(10)11)2-3-6(7)8/h2-4H,8H2,1H3",GVBHRNIWBGTNQA-UHFFFAOYSA-N,?,,141.0,101375
101376,97-53-0,97-53-0,COc1cc(CC=C)ccc1O,EUGENOL,Eugenol,2-methoxy-4-(prop-2-en-1-yl)phenol,28667,DTXSID9020617,COc1cc(CC=C)ccc1O,"InChI=1S/C10H12O2/c1-3-4-8-5-6-9(11)10(7-8)12-2/h3,5-7,11H,1,4H2,2H3",RRAFCDWBNXTKKO-UHFFFAOYSA-N,?,,-9.1,101376
101379,97-59-6,97-59-6,NC(=O)NC1NC(=O)NC1=O,ALLANTOIN,Allantoin,"1-(2,5-dioxoimidazolidin-4-yl)urea",28669,DTXSID3020043,NC(=O)NC1NC(=O)NC1=O,"InChI=1S/C4H6N4O3/c5-3(10)6-1-2(9)8-4(11)7-1/h1H,(H3,5,6,10)(H2,7,8,9,11)",POJWUDADGALRAB-UHFFFAOYSA-N,?,,238.0,101379
101380,97-62-1,97-62-1,CCOC(=O)C(C)C,ETHYL ISOBUTYRATE,Ethyl isobutyrate,ethyl 2-methylpropanoate,28670,DTXSID7047728,CCOC(=O)C(C)C,"InChI=1S/C6H12O2/c1-4-8-6(7)5(2)3/h5H,4H2,1-3H3",WDAXFOBOLVPGLV-UHFFFAOYSA-N,?,,-88.2,101380
101381,97-65-4,97-65-4,C=C(CC(O)=O)C(O)=O,"Butanedioic acid, methylene-",Methylenebutanedioic acid,2-methylidenebutanedioic acid,28671,DTXSID2026608,C=C(CC(O)=O)C(O)=O,"InChI=1S/C5H6O4/c1-3(5(8)9)2-4(6)7/h1-2H2,(H,6,7)(H,8,9)",LVHBHZANLOWSRM-UHFFFAOYSA-N,?,,175.0,101381
101383,97-74-5,97-74-5,CN(C)C(=S)SC(=S)N(C)C,TETRAMETHYLTHIURAM,Tetramethylthiuram monosulfide,"N,N,N',N'-tetramethyldicarbonotrithioic diamide",28673,DTXSID0021333,CN(C)C(=S)SC(=S)N(C)C,InChI=1S/C6H12N2S3/c1-7(2)5(9)11-6(10)8(3)4/h1-4H3,REQPQFUJGGOFQL-UHFFFAOYSA-N,?,,109.5,101383
101384,97-75-6,97-75-6,C[N+]1([O-])[C@@H]2C[C@H](C[C@H]1[C@@H]1O[C@@H]12)OC(=O)[C@H](CO)c1ccccc1,Scopolamine N-Oxide,Scopolamine N-oxide,C17H21NO5,28674,DTXSID5046930,C[N+]1([O-])C2CC(CC1C1OC12)OC(=O)C(CO)c1ccccc1,"InChI=1S/C17H21NO5/c1-18(21)13-7-11(8-14(18)16-15(13)23-16)22-17(20)12(9-19)10-5-3-2-4-6-10/h2-6,11-16,19H,7-9H2,1H3",GSYQNAMOFFWAPF-UHFFFAOYSA-N,?,,80.0,101384
101385,97-77-8,97-77-8,CCN(CC)C(=S)SSC(=S)N(CC)CC,DISULFIRAM,Disulfiram,"1,1',1'',1'''-[disulfanediylbis(carbonothioylnitrilo)]tetraethane",28675,DTXSID1021322,CCN(CC)C(=S)SSC(=S)N(CC)CC,"InChI=1S/C10H20N2S4/c1-5-11(6-2)9(13)15-16-10(14)12(7-3)8-4/h5-8H2,1-4H3",AUZONCFQVSMFAP-UHFFFAOYSA-N,?,,71.5,101385
101387,97-88-1,97-88-1,CC(=C)C(=O)OCCCC,"METHACRYLIC ACID, N-BUTYL ESTER",Butyl methacrylate,butyl 2-methylprop-2-enoate,28677,DTXSID4024696,CC(=C)C(=O)OCCCC,"InChI=1S/C8H14O2/c1-4-5-6-10-8(9)7(2)3/h2,4-6H2,1,3H3",SOGAXMICEFXMKE-UHFFFAOYSA-N,?,,-75.0,101387
101389,97-94-9,97-94-9,CCB(CC)CC,TRIETHYLBORINE,Triethylborane,triethylborane,28678,DTXSID2052653,CCB(CC)CC,"InChI=1S/C6H15B/c1-4-7(5-2)6-3/h4-6H2,1-3H3",LALRXNPLTWZJIJ-UHFFFAOYSA-N,?,,-93.0,101389
101390,98-00-0,98-00-0,OCc1ccco1,2-HYDROXYMETHYLFURAN,Furfuryl alcohol,furan-2-ylmethanol,28679,DTXSID2025347,OCc1ccco1,"InChI=1S/C5H6O2/c6-4-5-2-1-3-7-5/h1-3,6H,4H2",XPFVYQJUAUNWIW-UHFFFAOYSA-N,?,,-14.6,101390
101392,98-04-4,98-04-4,[I-].C[N+](C)(C)c1ccccc1,PHENYL TRIMETHYL AMMONIUM IODIDE,Phenyltrimethylammonium iodide,"N,N,N-trimethylanilinium iodide",28681,DTXSID1021825,C[N+](C)(C)c1ccccc1,"InChI=1S/C9H14N/c1-10(2,3)9-7-5-4-6-8-9/h4-8H,1-3H3/q+1",ZNEOHLHCKGUAEB-UHFFFAOYSA-N,[I-],19585,224.0,101392
101393,98-06-6,98-06-6,CC(C)(C)c1ccccc1,T-BUTYLBENZENE,tert-Butylbenzene,tert-butylbenzene,28682,DTXSID3047138,CC(C)(C)c1ccccc1,"InChI=1S/C10H14/c1-10(2,3)9-7-5-4-6-8-9/h4-8H,1-3H3",YTZKOQUCBOVLHL-UHFFFAOYSA-N,?,,-57.8,101393
101394,98-07-7,98-07-7,ClC(Cl)(Cl)c1ccccc1,BENZOTRICHLORIDE,Benzotrichloride,(trichloromethyl)benzene,28683,DTXSID1020148,ClC(Cl)(Cl)c1ccccc1,"InChI=1S/C7H5Cl3/c8-7(9,10)6-4-2-1-3-5-6/h1-5H",XEMRAKSQROQPBR-UHFFFAOYSA-N,?,,-5.0,101394
101396,98-09-9,98-09-9,O=S(=O)(Cl)c1ccccc1,BENZENESULFONYL CHLORIDE,Benzenesulfonyl chloride,benzenesulfonyl chloride,28685,DTXSID1026619,O=S(=O)(Cl)c1ccccc1,"InChI=1S/C6H5ClO2S/c7-10(8,9)6-4-2-1-3-5-6/h1-5H",CSKNSYBAZOQPLR-UHFFFAOYSA-N,?,,14.5,101396
101397,98-10-2,98-10-2,NS(=O)(=O)c1ccccc1,BENZENESULFONAMIDE,Benzenesulfonamide,Benzenesulfonamide,28686,DTXSID1059159,NS(=O)(=O)c1ccccc1,"InChI=1S/C6H7NO2S/c7-10(8,9)6-4-2-1-3-5-6/h1-5H,(H2,7,8,9)",KHBQMWCZKVMBLN-UHFFFAOYSA-N,?,,151.0,101397
101398,98-11-3,98-11-3,OS(=O)(=O)c1ccccc1,BENZENESULFONIC ACID,Benzenesulfonic acid,benzenesulfonic acid,28687,DTXSID9024568,OS(=O)(=O)c1ccccc1,"InChI=1S/C6H6O3S/c7-10(8,9)6-4-2-1-3-5-6/h1-5H,(H,7,8,9)",SRSXLGNVWSONIS-UHFFFAOYSA-N,?,,65.0,101398
101400,98-15-7,98-15-7,FC(F)(F)c1cccc(Cl)c1,"Benzene, 1-chloro-3-(trifluoromethyl)-",3-Chlorobenzotrifluoride,1-chloro-3-(trifluoromethyl)benzene,28689,DTXSID4024773,FC(F)(F)c1cccc(Cl)c1,"InChI=1S/C7H4ClF3/c8-6-3-1-2-5(4-6)7(9,10)11/h1-4H",YTCGOUNVIAWCMG-UHFFFAOYSA-N,?,,-56.0,101400
101401,98-16-8,98-16-8,Nc1cc(ccc1)C(F)(F)F,3-TRIFLUOROMETHYLANILINE,3-(Trifluoromethyl)aniline,3-(trifluoromethyl)aniline,28690,DTXSID9024512,Nc1cc(ccc1)C(F)(F)F,"InChI=1S/C7H6F3N/c8-7(9,10)5-2-1-3-6(11)4-5/h1-4H,11H2",VIUDTWATMPPKEL-UHFFFAOYSA-N,?,,5.5,101401
101402,98-17-9,98-17-9,Oc1cc(ccc1)C(F)(F)F,M-TRIFLUOROMETHYLPHENOL,3-(Trifluoromethyl)phenol,3-(trifluoromethyl)phenol,28691,DTXSID7052658,Oc1cc(ccc1)C(F)(F)F,"InChI=1S/C7H5F3O/c8-7(9,10)5-2-1-3-6(11)4-5/h1-4,11H",UGEJOEBBMPOJMT-UHFFFAOYSA-N,?,,-1.8,101402
101404,98-27-1,98-27-1,Cc1cc(ccc1O)C(C)(C)C,4-(T-BUTYL)-2-CRESOL,"Phenol, 4-(1,1-dimethylethyl)-2-methyl-",4-tert-Butyl-2-methylphenol,28693,DTXSID5059163,Cc1cc(ccc1O)C(C)(C)C,"InChI=1S/C11H16O/c1-8-7-9(11(2,3)4)5-6-10(8)12/h5-7,12H,1-4H3",SNKLPZOJLXDZCW-UHFFFAOYSA-N,?,,27.5,101404
101405,98-29-3,98-29-3,CC(C)(C)c1cc(O)c(O)cc1,"1,2-Benzenediol, 4-(1,1-dimethylethyl)-",4-tert-Butylcatechol,"4-tert-butylbenzene-1,2-diol",28694,DTXSID5024687,CC(C)(C)c1cc(O)c(O)cc1,"InChI=1S/C10H14O2/c1-10(2,3)7-4-5-8(11)9(12)6-7/h4-6,11-12H,1-3H3",XESZUVZBAMCAEJ-UHFFFAOYSA-N,?,,54.3,101405
101406,98-46-4,98-46-4,[O-][N+](=O)c1cc(ccc1)C(F)(F)F,M-TRIFLUOROMETHYLNITROBENZENE,1-Nitro-3-(trifluoromethyl)benzene,1-nitro-3-(trifluoromethyl)benzene,28695,DTXSID9025794,[O-][N+](=O)c1cc(ccc1)C(F)(F)F,"InChI=1S/C7H4F3NO2/c8-7(9,10)5-2-1-3-6(4-5)11(12)13/h1-4H",WHNAMGUAXHGCHH-UHFFFAOYSA-N,?,,-2.4,101406
101409,98-51-1,98-51-1,Cc1ccc(cc1)C(C)(C)C,P-(T-BUTYL)TOLUENE,4-tert-Butyltoluene,1-tert-butyl-4-methylbenzene,28696,DTXSID1024704,Cc1ccc(cc1)C(C)(C)C,"InChI=1S/C11H16/c1-9-5-7-10(8-6-9)11(2,3)4/h5-8H,1-4H3",QCWXDVFBZVHKLV-UHFFFAOYSA-N,?,,-52.0,101409
101410,98-52-2,98-52-2,CC(C)(C)C1CCC(O)CC1,"Cyclohexanol, 4-(1,1-dimethylethyl)-",4-tert-Butylcyclohexanol,4-tert-butylcyclohexanol,28697,DTXSID5026623,CC(C)(C)C1CCC(O)CC1,"InChI=1S/C10H20O/c1-10(2,3)8-4-6-9(11)7-5-8/h8-9,11H,4-7H2,1-3H3",CCOQPGVQAWPUPE-UHFFFAOYSA-N,?,,66.0,101410
101411,98-53-3,98-53-3,CC(C)(C)C1CCC(=O)CC1,"Cyclohexanone, 4-(1,1-dimethylethyl)-",4-tert-Butylcyclohexanone,4-tert-butylcyclohexanone,28698,DTXSID7044394,CC(C)(C)C1CCC(=O)CC1,"InChI=1S/C10H18O/c1-10(2,3)8-4-6-9(11)7-5-8/h8H,4-7H2,1-3H3",YKFKEYKJGVSEIX-UHFFFAOYSA-N,?,,48.5,101411
101413,98-55-5|2438-12-2|10482-56-1,98-55-5|10482-56-1,CC1CCC(CC=1)C(C)(C)O,"ALPHA-TERPINEOL, 2-(4-Methyl-cyclohex-3-enyl)-propan-2-ol, 2-(4-METHYL-3-CYLOHEXENYL)ISOPROPANOL",alpha-Terpineol,2-(4-methylcyclohex-3-en-1-yl)propan-2-ol,28700|33678|34791,DTXSID5026625|DTXSID5052672,CC1CCC(CC=1)C(C)(C)O,"InChI=1S/C10H18O/c1-8-4-6-9(7-5-8)10(2,3)11/h4,9,11H,5-7H2,1-3H3",WUOACPNHFRMFPN-UHFFFAOYSA-N,?,,37.0,101413
101414,98-56-6,98-56-6,FC(F)(F)c1ccc(Cl)cc1,4-(TRIFLUOROMETHYL)CHLOROBENZENE,1-Chloro-4-(trifluoromethyl)benzene,1-chloro-4-(trifluoromethyl)benzene,28701,DTXSID7024821,FC(F)(F)c1ccc(Cl)cc1,"InChI=1S/C7H4ClF3/c8-6-3-1-5(2-4-6)7(9,10)11/h1-4H",QULYNCCPRWKEMF-UHFFFAOYSA-N,?,,-33.0,101414
101415,98-58-8,98-58-8,O=S(=O)(Cl)c1ccc(Br)cc1,"Benzenesulfonyl chloride, 4-bromo-","Benzenesulfonyl chloride, 4-bromo-",4-BROMOBENZENESULFONYL CHLORIDE,28702,DTXSID9059173,O=S(=O)(Cl)c1ccc(Br)cc1,"InChI=1S/C6H4BrClO2S/c7-5-1-3-6(4-2-5)11(8,9)10/h1-4H",KMMHZIBWCXYAAH-UHFFFAOYSA-N,?,,76.0,101415
101417,98-60-2,98-60-2,O=S(=O)(Cl)c1ccc(Cl)cc1,"Benzenesulfonyl chloride, 4-chloro-","Benzenesulfonyl chloride, 4-chloro-",4-Chlorobenzenesulfonyl chloride,28704,DTXSID4059174,O=S(=O)(Cl)c1ccc(Cl)cc1,"InChI=1S/C6H4Cl2O2S/c7-5-1-3-6(4-2-5)11(8,9)10/h1-4H",ZLYBFBAHAQEEQQ-UHFFFAOYSA-N,?,,51.0,101417
101418,98-61-3,98-61-3,O=S(=O)(Cl)c1ccc(I)cc1,"Benzenesulfonyl chloride, 4-iodo-","Benzenesulfonyl chloride, 4-iodo-",4-Iodobenzenesulfonyl chloride,28705,DTXSID9059175,O=S(=O)(Cl)c1ccc(I)cc1,"InChI=1S/C6H4ClIO2S/c7-11(9,10)6-3-1-5(8)2-4-6/h1-4H",POXFXTSTVWDWIR-UHFFFAOYSA-N,?,,85.0,101418
101419,98-62-4,98-62-4,Nc1ccc(cc1)S(=O)(=O)F,"Benzenesulfonyl fluoride, 4-amino-","Benzenesulfonyl fluoride, 4-amino-",4-Aminobenzenesulfonyl fluoride,28706,DTXSID4059176,Nc1ccc(cc1)S(=O)(=O)F,"InChI=1S/C6H6FNO2S/c7-11(9,10)6-3-1-5(8)2-4-6/h1-4H,8H2",BPUKPIBWYZWYQV-UHFFFAOYSA-N,?,,68.5,101419
101422,98-71-5,98-71-5,NNc1ccc(cc1)S(O)(=O)=O,"Benzenesulfonic acid, 4-hydrazino-","Benzenesulfonic acid, 4-hydrazino-",4-hydrazinylbenzenesulfonic acid,28708,DTXSID9059177,NNc1ccc(cc1)S(O)(=O)=O,"InChI=1S/C6H8N2O3S/c7-8-5-1-3-6(4-2-5)12(9,10)11/h1-4,8H,7H2,(H,9,10,11)",IOMZCWUHFGMSEJ-UHFFFAOYSA-N,?,,286.0,101422
101423,98-73-7,98-73-7,CC(C)(C)c1ccc(cc1)C(O)=O,"BENZOIC ACID, 4-(TERT-BUTYL)-",4-tert-Butylbenzoic acid,4-tert-butylbenzoic acid,28709,DTXSID0040703,CC(C)(C)c1ccc(cc1)C(O)=O,"InChI=1S/C11H14O2/c1-11(2,3)9-6-4-8(5-7-9)10(12)13/h4-7H,1-3H3,(H,12,13)",KDVYCTOWXSLNNI-UHFFFAOYSA-N,?,,164.5,101423
101424,98-79-3,98-79-3,OC(=O)[C@@H]1CCC(=O)N1,"L-Proline, 5-oxo-",Pidolic acid,5-oxo-L-proline,28710,DTXSID6046260,OC(=O)C1CCC(=O)N1,"InChI=1S/C5H7NO3/c7-4-2-1-3(6-4)5(8)9/h3H,1-2H2,(H,6,7)(H,8,9)",ODHCTXKNWHHXJC-UHFFFAOYSA-N,?,,184.7,101424
101426,98-81-7,98-81-7,C=C(Br)c1ccccc1,alpha-Bromostyrene,"Styrene, alpha-bromo-",1-bromoethenylbenzene,28712,DTXSID70243366,C=C(Br)c1ccccc1,"InChI=1S/C8H7Br/c1-7(9)8-5-3-2-4-6-8/h2-6H,1H2",SRXJYTZCORKVNA-UHFFFAOYSA-N,?,,-44.0,101426
101427,98-82-8,98-82-8,CC(C)c1ccccc1,CUMENE,Cumene,propan-2-ylbenzene,28713,DTXSID1021827,CC(C)c1ccccc1,"InChI=1S/C9H12/c1-8(2)9-6-4-3-5-7-9/h3-8H,1-2H3",RWGFKTVRMDUZSP-UHFFFAOYSA-N,?,,-96.0,101427
101428,98-83-9,98-83-9,CC(=C)c1ccccc1,ALPHA-METHYLSTYRENE,alpha-Methylstyrene,prop-1-en-2-ylbenzene,28714,DTXSID9025661,CC(=C)c1ccccc1,"InChI=1S/C9H10/c1-8(2)9-6-4-3-5-7-9/h3-7H,1H2,2H3",XYLMUPLGERFSHI-UHFFFAOYSA-N,?,,-23.2,101428
101430,98-86-2,98-86-2,CC(=O)c1ccccc1,ACETOPHENONE,Acetophenone,1-phenylethanone,28716,DTXSID6021828,CC(=O)c1ccccc1,"InChI=1S/C8H8O/c1-7(9)8-5-3-2-4-6-8/h2-6H,1H3",KWOLFJPFCHCOCG-UHFFFAOYSA-N,?,,20.0,101430
101431,98-87-3,98-87-3,ClC(Cl)c1ccccc1,(DICHLOROMETHYL)BENZENE,Benzal chloride,(dichloromethyl)benzene,28717,DTXSID6025014,ClC(Cl)c1ccccc1,"InChI=1S/C7H6Cl2/c8-7(9)6-4-2-1-3-5-6/h1-5,7H",CAHQGWAXKLQREW-UHFFFAOYSA-N,?,,-17.0,101431
101432,98-88-4,98-88-4,O=C(Cl)c1ccccc1,BENZOYL CHLORIDE,Benzoyl chloride,benzoyl chloride,28718,DTXSID9026631,O=C(Cl)c1ccccc1,InChI=1S/C7H5ClO/c8-7(9)6-4-2-1-3-5-6/h1-5H,PASDCCFISLVPSO-UHFFFAOYSA-N,?,,-1.0,101432
101434,98-91-9,98-91-9,O=C(S)c1ccccc1,Benzenecarbothioic acid,Benzenecarbothioic acid,benzenecarbothioic S-acid,28720,DTXSID3059181,O=C(S)c1ccccc1,"InChI=1S/C7H6OS/c8-7(9)6-4-2-1-3-5-6/h1-5H,(H,8,9)",UIJGNTRUPZPVNG-UHFFFAOYSA-N,?,,24.0,101434
101435,98-92-0,98-92-0,NC(=O)c1ccc[n]c1,NICOTINAMIDE,Niacinamide,pyridine-3-carboxamide,28721,DTXSID2020929,NC(=O)c1ccc[n]c1,"InChI=1S/C6H6N2O/c7-6(9)5-2-1-3-8-4-5/h1-4H,(H2,7,9)",DFPAKSUCGFBDDF-UHFFFAOYSA-N,?,,130.0,101435
101436,98-95-3,98-95-3,[O-][N+](=O)c1ccccc1,NITROBENZENE,Nitrobenzene,nitrobenzene,28722,DTXSID3020964,[O-][N+](=O)c1ccccc1,InChI=1S/C6H5NO2/c8-7(9)6-4-2-1-3-5-6/h1-5H,LQNUZADURLCDLV-UHFFFAOYSA-N,?,,5.7,101436
101438,98-98-6,98-98-6,OC(=O)c1cccc[n]1,PICOLINIC ACID,Picolinic acid,pyridine-2-carboxylic acid,28724,DTXSID7031903,OC(=O)c1cccc[n]1,"InChI=1S/C6H5NO2/c8-6(9)5-3-1-2-4-7-5/h1-4H,(H,8,9)",SIOXPEMLGUPBBT-UHFFFAOYSA-N,?,,136.5,101438
101439,99-00-3,99-00-3,SC(=S)N1CCNCC1,Picadex,1-Piperazinecarbodithioic acid,piperazine-1-carbodithioic acid,28725,DTXSID5041279,SC(=S)N1CCNCC1,"InChI=1S/C5H10N2S2/c8-5(9)7-3-1-6-2-4-7/h6H,1-4H2,(H,8,9)",IDIICHZCEIGXGB-UHFFFAOYSA-N,?,,228.0,101439
101440,99-03-6,99-03-6,CC(=O)c1cccc(N)c1,M-AMINOACETOPHENONE,3-Aminoacetophenone,1-(3-aminophenyl)ethanone,28726,DTXSID0021830,CC(=O)c1cccc(N)c1,"InChI=1S/C8H9NO/c1-6(10)7-3-2-4-8(9)5-7/h2-5H,9H2,1H3",CKQHAYFOPRIUOM-UHFFFAOYSA-N,?,,98.5,101440
101442,99-05-8,99-05-8,Nc1cc(ccc1)C(O)=O,3-AMINOBENZOIC ACID,"Benzoic acid, 3-amino-",3-Aminobenzoic acid,28728,DTXSID3059183,Nc1cc(ccc1)C(O)=O,"InChI=1S/C7H7NO2/c8-6-3-1-2-5(4-6)7(9)10/h1-4H,8H2,(H,9,10)",XFDUHJPVQKIXHO-UHFFFAOYSA-N,?,,173.0,101442
101443,99-06-9,99-06-9,Oc1cccc(c1)C(O)=O,M-HYDROXYBENZOIC ACID,3-Hydroxybenzoic acid,3-hydroxybenzoic acid,28729,DTXSID6021610,Oc1cccc(c1)C(O)=O,"InChI=1S/C7H6O3/c8-6-3-1-2-5(4-6)7(9)10/h1-4,8H,(H,9,10)",IJFXRHURBJZNAO-UHFFFAOYSA-N,?,,202.0,101443
101444,99-07-0,99-07-0,CN(C)c1cccc(O)c1,"PHENOL, 3-(DIMETHYLAMINO)-",3-Dimethylaminophenol,3-(dimethylamino)phenol,28730,DTXSID0025101,CN(C)c1cccc(O)c1,"InChI=1S/C8H11NO/c1-9(2)7-4-3-5-8(10)6-7/h3-6,10H,1-2H3",MESJRHHDBDCQTH-UHFFFAOYSA-N,?,,86.0,101444
101446,99-09-2,99-09-2,Nc1cc(ccc1)[N+]([O-])=O,3-NITROANILINE,3-Nitroaniline,3-nitroaniline,28732,DTXSID6025725,Nc1cc(ccc1)[N+]([O-])=O,"InChI=1S/C6H6N2O2/c7-5-2-1-3-6(4-5)8(9)10/h1-4H,7H2",XJCVRTZCHMZPBD-UHFFFAOYSA-N,?,,114.0,101446
101447,99-12-7,99-12-7,Cc1cc(cc(C)c1)[N+]([O-])=O,"Benzene, 1,3-dimethyl-5-nitro-","1,3-Dimethyl-5-nitrobenzene","1,3-dimethyl-5-nitrobenzene",28733,DTXSID7025136,Cc1cc(cc(C)c1)[N+]([O-])=O,"InChI=1S/C8H9NO2/c1-6-3-7(2)5-8(4-6)9(10)11/h3-5H,1-2H3",BYFNZOKBMZKTSC-UHFFFAOYSA-N,?,,75.0,101447
101448,99-14-9,99-14-9,OC(=O)C(CC(O)=O)CC(O)=O,"1,2,3-Propanetricarboxylic acid","1,2,3-Propanetricarboxylic acid","Propane-1,2,3-tricarboxylic acid",28734,DTXSID8059186,OC(=O)C(CC(O)=O)CC(O)=O,"InChI=1S/C6H8O6/c7-4(8)1-3(6(11)12)2-5(9)10/h3H,1-2H2,(H,7,8)(H,9,10)(H,11,12)",KQTIIICEAUMSDG-UHFFFAOYSA-N,?,,166.0,101448