ChemID,source_casrn,CAS,SMILES,NAME,preferred_name,iupac,MPID,dsstox_substance_id,Canonical_QSARr,InChI_Code_QSARr,InChI Key_QSARr,Salt_Solvent,BP,ID
101461,141-03-7,141-03-7,CCCCOC(=O)CCC(=O)OCCCC,"Butanedioic acid, dibutyl ester",Dibutyl butanedioate,dibutyl butanedioate,20523,DTXSID7021998,CCCCOC(=O)CCC(=O)OCCCC,"InChI=1S/C12H22O4/c1-3-5-9-15-11(13)7-8-12(14)16-10-6-4-2/h3-10H2,1-2H3",YUXIBTJKHLUKBD-UHFFFAOYSA-N,?,274.5,101461
101463,141-05-9|623-91-6,141-05-9|623-91-6,CCOC(=O)/C=C\C(=O)OCC,"DIETHYL MALEATE, 2-Butenedioic acid (E)-, diethyl ester",Diethyl maleate,diethyl (2Z)-but-2-enedioate,20525|21855,DTXSID8020464|DTXSID7027253,CCOC(=O)C=CC(=O)OCC,"InChI=1S/C8H12O4/c1-3-11-7(9)5-6-8(10)12-4-2/h5-6H,3-4H2,1-2H3/b6-5+",IEPRKVQEAMIZSS-AATRIKPKSA-N,?,218.5,101463
101464,141-06-0,141-06-0,CCCOC(=O)CCCC,"PENTANOIC ACID, PROPYL ESTER",Propyl valerate,propyl pentanoate,20526,DTXSID90161513,CCCOC(=O)CCCC,"InChI=1S/C8H16O2/c1-3-5-6-8(9)10-7-4-2/h3-7H2,1-2H3",ROJKPKOYARNFNB-UHFFFAOYSA-N,?,167.5,101464
101466,141-27-5|5392-40-5,5392-40-5,CC(C)=CCCC(C)=CC=O,"2,6-Octadienal, 3,7-dimethyl-, (E)-, CITRAL","3,7-Dimethyl-2,6-octadienal","3,7-dimethylocta-2,6-dienal",20528|23781,DTXSID6024836,CC(C)=CCCC(C)=CC=O,"InChI=1S/C10H16O/c1-9(2)5-4-6-10(3)7-8-11/h5,7-8H,4,6H2,1-3H3/b10-7+",WTEVQBCEXWBHNA-JXMROGBWSA-N,?,228.0,101466
101468,141-32-2,141-32-2,CCCCOC(=O)C=C,BUTYL ACRYLATE,Butyl acrylate,butyl prop-2-enoate,20530,DTXSID6024676,CCCCOC(=O)C=C,"InChI=1S/C7H12O2/c1-3-5-6-9-7(8)4-2/h4H,2-3,5-6H2,1H3",CQEYYJKEWSMYFG-UHFFFAOYSA-N,?,145.0,101468
101469,141-43-5,141-43-5,NCCO,ETHANOLAMINE,Ethanolamine,2-aminoethanol,20531,DTXSID6022000,NCCO,"InChI=1S/C2H7NO/c3-1-2-4/h4H,1-3H2",HZAXFHJVJLSVMW-UHFFFAOYSA-N,?,171.0,101469
101470,141-57-1,NOCAS_861813,CCC[Si](Cl)(Cl)Cl,PROPYLTRICHLOROSILANE,,,20532,DTXSID80861813,CCC[Si](Cl)(Cl)Cl,"InChI=1S/C3H7Cl3Si/c1-2-3-7(4,5)6/h2-3H2,1H3",DOEHJNBEOVLHGL-UHFFFAOYSA-N,?,123.5,101470
101472,141-62-8,141-62-8,C[Si](C)(C)O[Si](C)(C)O[Si](C)(C)O[Si](C)(C)C,DECAMETHYLTETRASILOXANE,Decamethyltetrasiloxane,decamethyltetrasiloxane,20534,DTXSID2044551,C[Si](C)(C)O[Si](C)(C)O[Si](C)(C)O[Si](C)(C)C,"InChI=1S/C10H30O3Si4/c1-14(2,3)11-16(7,8)13-17(9,10)12-15(4,5)6/h1-10H3",YFCGDEUVHLPRCZ-UHFFFAOYSA-N,?,194.0,101472
101473,141-63-9,141-63-9,C[Si](C)(C)O[Si](C)(C)O[Si](C)(C)O[Si](C)(C)O[Si](C)(C)C,DODECAMETHYLPENTASILOXANE,Dodecamethylpentasiloxane,dodecamethylpentasiloxane,20535,DTXSID1044803,C[Si](C)(C)O[Si](C)(C)O[Si](C)(C)O[Si](C)(C)O[Si](C)(C)C,"InChI=1S/C12H36O4Si5/c1-17(2,3)13-19(7,8)15-21(11,12)16-20(9,10)14-18(4,5)6/h1-12H3",FBZANXDWQAVSTQ-UHFFFAOYSA-N,?,232.0,101473
101474,141-75-3,141-75-3,CCCC(=O)Cl,Butanoyl chloride,Butyryl chloride,butanoyl chloride,20536,DTXSID5024710,CCCC(=O)Cl,"InChI=1S/C4H7ClO/c1-2-3-4(5)6/h2-3H2,1H3",DVECBJCOGJRVPX-UHFFFAOYSA-N,?,102.0,101474
101476,141-79-7,141-79-7,CC(C)=CC(C)=O,MESITYL OXIDE,4-Methylpent-3-en-2-one,4-methylpent-3-en-2-one,20538,DTXSID1029170,CC(C)=CC(C)=O,"InChI=1S/C6H10O/c1-5(2)4-6(3)7/h4H,1-3H3",SHOJXDKTYKFBRD-UHFFFAOYSA-N,?,130.0,101476
101477,141-86-6,141-86-6,Nc1cccc(N)[n]1,"2,6-Pyridinediamine","2,6-Diaminopyridine","pyridine-2,6-diamine",20539,DTXSID0040127,Nc1cccc(N)[n]1,"InChI=1S/C5H7N3/c6-4-2-1-3-5(7)8-4/h1-3H,(H4,6,7,8)",VHNQIURBCCNWDN-UHFFFAOYSA-N,?,285.0,101477
101478,141-91-3,141-91-3,CC1CNCC(C)O1,"Morpholine, 2,6-dimethyl-","2,6-Dimethyl morpholine","2,6-dimethylmorpholine",20540,DTXSID6022002,CC1CNCC(C)O1,"InChI=1S/C6H13NO/c1-5-3-7-4-6(2)8-5/h5-7H,3-4H2,1-2H3",HNVIQLPOGUDBSU-UHFFFAOYSA-N,?,146.6,101478
101480,141-97-9,141-97-9,CC(=O)CC(=O)OCC,ACETOACETIC ESTER,Ethyl acetoacetate,ethyl 3-oxobutanoate,20542,DTXSID2027092,CC(=O)CC(=O)OCC,"InChI=1S/C6H10O3/c1-3-9-6(8)4-5(2)7/h3-4H2,1-2H3",XYIBRDXRRQCHLP-UHFFFAOYSA-N,?,180.8,101480
101481,142-08-5,142-08-5,O=C1C=CC=CN1,2-HYDROXYPYRIDINE,2-Pyridone,pyridin-2(1H)-one,20543,DTXSID2051716,O=C1C=CC=CN1,"InChI=1S/C5H5NO/c7-5-3-1-2-4-6-5/h1-4H,(H,6,7)",UBQKCCHYAOITMY-UHFFFAOYSA-N,?,280.0,101481
101482,142-25-6,142-25-6,CNCCN(C)C,"1,2-ETHANEDIAMINE, N,N,N'-TRIMETHYL-","1,2-Ethanediamine, N,N,N'-trimethyl-","N,N,N'-trimethylethane-1,2-diamine",20544,DTXSID8059714,CNCCN(C)C,"InChI=1S/C5H14N2/c1-6-4-5-7(2)3/h6H,4-5H2,1-3H3",HVOYZOQVDYHUPF-UHFFFAOYSA-N,?,117.0,101482
101484,142-29-0,142-29-0,C1CCC=C1,CYCLOPENTENE,Cyclopentene,cyclopentene,20546,DTXSID6029171,C1CCC=C1,"InChI=1S/C5H8/c1-2-4-5-3-1/h1-2H,3-5H2",LPIQUOYDBNQMRZ-UHFFFAOYSA-N,?,44.2,101484
101485,142-30-3,142-30-3,CC(C)(O)C#CC(C)(C)O,"2,5-DIMETHYL-3-HEXYNE-2,5-DIOL","2,5-Dimethyl-3-hexyne-2,5-diol","2,5-dimethylhex-3-yne-2,5-diol",20547,DTXSID2027096,CC(C)(O)C#CC(C)(C)O,"InChI=1S/C8H14O2/c1-7(2,9)5-6-8(3,4)10/h9-10H,1-4H3",IHJUECRFYCQBMW-UHFFFAOYSA-N,?,205.0,101485
101486,142-50-7,142-50-7,CC(C)=CCC/C(/C)=C\CC[C@](C)(O)C=C,"1,6,10-Dodecatrien-3-ol, 3,7,11-trimethyl-",(S)-cis-Nerolidol,"(3S,6Z)-3,7,11-trimethyldodeca-1,6,10-trien-3-ol",20548,DTXSID4047048,CC(C)=CCCC(C)=CCCC(C)(O)C=C,"InChI=1S/C15H26O/c1-6-15(5,16)12-8-11-14(4)10-7-9-13(2)3/h6,9,11,16H,1,7-8,10,12H2,2-5H3/b14-11+",FQTLCLSUCSAZDY-SDNWHVSQSA-N,?,276.0,101486
101488,142-61-0,142-61-0,CCCCCC(=O)Cl,Hexanoyl chloride,Hexanoyl chloride,Hexanoyl chloride,20550,DTXSID8059718,CCCCCC(=O)Cl,"InChI=1S/C6H11ClO/c1-2-3-4-5-6(7)8/h2-5H2,1H3",YWGHUJQYGPDNKT-UHFFFAOYSA-N,?,153.0,101488
101489,142-62-1,142-62-1,CCCCCC(O)=O,HEXANOIC ACID,Hexanoic acid,hexanoic acid,20551,DTXSID7021607,CCCCCC(O)=O,"InChI=1S/C6H12O2/c1-2-3-4-5-6(7)8/h2-5H2,1H3,(H,7,8)",FUZZWVXGSFPDMH-UHFFFAOYSA-N,?,205.2,101489
101490,142-68-7,142-68-7,C1CCCCO1,TETRAHYDROPYRAN,Tetrahydropyran,Oxane,20552,DTXSID3059719,C1CCCCO1,InChI=1S/C5H10O/c1-2-4-6-5-3-1/h1-5H2,DHXVGJBLRPWPCS-UHFFFAOYSA-N,?,88.0,101490
101492,142-83-6,142-83-6,C/C=C/C=C/C=O,"2,4-HEXADIENAL","(2E,4E)-2,4-Hexadienal","(2E,4E)-hexa-2,4-dienal",20554,DTXSID2025391,CC=CC=CC=O,"InChI=1S/C6H8O/c1-2-3-4-5-6-7/h2-6H,1H3/b3-2+,5-4+",BATOPAZDIZEVQF-MQQKCMAXSA-N,?,174.0,101492
101493,142-84-7,142-84-7,CCCNCCC,DIPROPYLAMINE,Dipropylamine,N-propylpropan-1-amine,20555,DTXSID2025185,CCCNCCC,"InChI=1S/C6H15N/c1-3-5-7-6-4-2/h7H,3-6H2,1-2H3",WEHWNAOGRSTTBQ-UHFFFAOYSA-N,?,109.3,101493
101494,142-92-7,142-92-7,CCCCCCOC(C)=O,N-HEXYL ACETATE,Hexyl acetate,hexyl acetate,20556,DTXSID6022006,CCCCCCOC(C)=O,"InChI=1S/C8H16O2/c1-3-4-5-6-7-10-8(2)9/h3-7H2,1-2H3",AOGQPLXWSUTHQB-UHFFFAOYSA-N,?,171.5,101494
101496,143-07-7,143-07-7,CCCCCCCCCCCC(O)=O,DODECANOIC ACID,Dodecanoic acid,dodecanoic acid,20558,DTXSID5021590,CCCCCCCCCCCC(O)=O,"InChI=1S/C12H24O2/c1-2-3-4-5-6-7-8-9-10-11-12(13)14/h2-11H2,1H3,(H,13,14)",POULHZVOKOAJMA-UHFFFAOYSA-N,?,298.9,101496
101497,143-08-8,143-08-8,CCCCCCCCCO,1-NONANOL,1-Nonanol,nonan-1-ol,20559,DTXSID6022008,CCCCCCCCCO,"InChI=1S/C9H20O/c1-2-3-4-5-6-7-8-9-10/h10H,2-9H2,1H3",ZWRUINPWMLAQRD-UHFFFAOYSA-N,?,213.3,101497
101498,143-10-2,143-10-2,CCCCCCCCCCS,1-DECANETHIOL,1-Decanethiol,decane-1-thiol,20560,DTXSID7059727,CCCCCCCCCCS,"InChI=1S/C10H22S/c1-2-3-4-5-6-7-8-9-10-11/h11H,2-10H2,1H3",VTXVGVNLYGSIAR-UHFFFAOYSA-N,?,240.6,101498
101500,143-15-7,143-15-7,CCCCCCCCCCCCBr,1-BROMO-N-DODECANE,1-Bromododecane,1-bromododecane,20562,DTXSID2044395,CCCCCCCCCCCCBr,"InChI=1S/C12H25Br/c1-2-3-4-5-6-7-8-9-10-11-12-13/h2-12H2,1H3",PBLNBZIONSLZBU-UHFFFAOYSA-N,?,276.0,101500
101501,143-16-8,143-16-8,CCCCCCNCCCCCC,"1-Hexanamine, N-hexyl-",Dihexylamine,N-hexylhexan-1-amine,20563,DTXSID1022009,CCCCCCNCCCCCC,"InChI=1S/C12H27N/c1-3-5-7-9-11-13-12-10-8-6-4-2/h13H,3-12H2,1-2H3",PXSXRABJBXYMFT-UHFFFAOYSA-N,?,236.0,101501
101502,143-22-6,143-22-6,CCCCOCCOCCOCCO,TRIETHYLENE GLYCOL BUTYL ETHER,2-[2-(2-Butoxyethoxy)ethoxy]ethanol,2-[2-(2-butoxyethoxy)ethoxy]ethanol,20564,DTXSID7021520,CCCCOCCOCCOCCO,"InChI=1S/C10H22O4/c1-2-3-5-12-7-9-14-10-8-13-6-4-11/h11H,2-10H2,1H3",COBPKKZHLDDMTB-UHFFFAOYSA-N,?,278.0,101502
101504,143-27-1,143-27-1,CCCCCCCCCCCCCCCCN,N-HEXADECYLAMINE,Hexadecylamine,hexadecan-1-amine,20566,DTXSID7025390,CCCCCCCCCCCCCCCCN,"InChI=1S/C16H35N/c1-2-3-4-5-6-7-8-9-10-11-12-13-14-15-16-17/h2-17H2,1H3",FJLUATLTXUNBOT-UHFFFAOYSA-N,?,322.5,101504
101506,144-19-4,144-19-4,CC(C)C(O)C(C)(C)CO,"2,2,4-TRIMETHYL-1,3-PENTANEDIOL","2,2,4-Trimethyl-1,3-pentanediol","2,2,4-trimethylpentane-1,3-diol",20567,DTXSID8027113,CC(C)C(O)C(C)(C)CO,"InChI=1S/C8H18O2/c1-6(2)7(10)8(3,4)5-9/h6-7,9-10H,5H2,1-4H3",JCTXKRPTIMZBJT-UHFFFAOYSA-N,?,232.0,101506
101507,144-49-0,144-49-0,OC(=O)CF,FLUOROACETIC ACID,Fluoroacetic acid,fluoroacetic acid,20568,DTXSID0041981,OC(=O)CF,"InChI=1S/C2H3FO2/c3-1-2(4)5/h1H2,(H,4,5)",QEWYKACRFQMRMB-UHFFFAOYSA-N,?,168.0,101507
101509,147-47-7,147-47-7,CC1=CC(C)(C)Nc2ccccc12,"1,2-Dihydro-2,2,4-trimethylquinoline","1,2-Dihydro-2,2,4-trimethylquinoline","2,2,4-trimethyl-1,2-dihydroquinoline",20570,DTXSID0025070,CC1=CC(C)(C)Nc2ccccc12,"InChI=1S/C12H15N/c1-9-8-12(2,3)13-11-7-5-4-6-10(9)11/h4-8,13H,1-3H3",ZNRLMGFXSPUZNR-UHFFFAOYSA-N,?,260.0,101509
101510,147-82-0,147-82-0,Nc1c(Br)cc(Br)cc1Br,"Benzenamine, 2,4,6-tribromo-","2,4,6-Tribromoaniline","2,4,6-tribromoaniline",20571,DTXSID5051733,Nc1c(Br)cc(Br)cc1Br,"InChI=1S/C6H4Br3N/c7-3-1-4(8)6(10)5(9)2-3/h1-2H,10H2",GVPODVKBTHCGFU-UHFFFAOYSA-N,?,300.0,101510
101511,148-24-3,148-24-3,Oc1cccc2ccc[n]c21,8-QUINOLINOL,8-Hydroxyquinoline,quinolin-8-ol,20572,DTXSID5020730,Oc1cccc2ccc[n]c21,"InChI=1S/C9H7NO/c11-8-5-1-3-7-4-2-6-10-9(7)8/h1-6,11H",MCJGNVYPOGVAJF-UHFFFAOYSA-N,?,267.0,101511
101513,149-32-6,149-32-6,O[C@H](CO)[C@@H](O)CO,ERYTHRITOL,Erythritol,"(2R,3S)-butane-1,2,3,4-tetrol",20574,DTXSID6043919,OC(CO)C(O)CO,"InChI=1S/C4H10O4/c5-1-3(7)4(8)2-6/h3-8H,1-2H2",UNXHWFMMPAWVPI-UHFFFAOYSA-N,?,330.5,101513
101514,149-57-5,149-57-5,CCCCC(CC)C(O)=O,"HEXANOIC ACID, 2-ETHYL-",2-Ethylhexanoic acid,2-ethylhexanoic acid,20575,DTXSID9025293,CCCCC(CC)C(O)=O,"InChI=1S/C8H16O2/c1-3-5-6-7(4-2)8(9)10/h7H,3-6H2,1-2H3,(H,9,10)",OBETXYAYXDNJHR-UHFFFAOYSA-N,?,228.0,101514
101515,149-73-5,149-73-5,COC(OC)OC,TRIMETHOXYMETHANE,Trimethoxymethane,trimethoxymethane,20576,DTXSID7027122,COC(OC)OC,"InChI=1S/C4H10O3/c1-5-4(6-2)7-3/h4H,1-3H3",PYOKUURKVVELLB-UHFFFAOYSA-N,?,104.0,101515
101517,150-19-6,150-19-6,COc1cccc(O)c1,M-METHOXYPHENOL,3-Methoxyphenol,3-methoxyphenol,20578,DTXSID0022012,COc1cccc(O)c1,"InChI=1S/C7H8O2/c1-9-7-4-2-3-6(8)5-7/h2-5,8H,1H3",ASHGTJPOSUFTGB-UHFFFAOYSA-N,?,244.0,101517
101518,150-46-9,150-46-9,CCOB(OCC)OCC,TRIETHYL BORATE,Triethyl borate,C6H15BO3,20579,DTXSID2041674,CCOB(OCC)OCC,"InChI=1S/C6H15BO3/c1-4-8-7(9-5-2)10-6-3/h4-6H2,1-3H3",AJSTXXYNEIHPMD-UHFFFAOYSA-N,?,120.0,101518
101519,150-76-5,150-76-5,COc1ccc(O)cc1,P-METHOXYPHENOL,4-Methoxyphenol,4-methoxyphenol,20580,DTXSID4020828,COc1ccc(O)cc1,"InChI=1S/C7H8O2/c1-9-7-4-2-6(8)3-5-7/h2-5,8H,1H3",NWVVVBRKAWDGAB-UHFFFAOYSA-N,?,243.0,101519
101521,150-78-7,150-78-7,COc1ccc(cc1)OC,P-DIMETHOXYBENZENE,Hydroquinone dimethyl ether,"1,4-dimethoxybenzene",20582,DTXSID0022014,COc1ccc(cc1)OC,"InChI=1S/C8H10O2/c1-9-7-3-5-8(10-2)6-4-7/h3-6H,1-2H3",OHBQPCCCRFSCAX-UHFFFAOYSA-N,?,212.6,101521
101522,151-10-0,151-10-0,COc1cc(ccc1)OC,M-DIMETHOXYBENZENE,"1,3-Dimethoxybenzene","1,3-dimethoxybenzene",20583,DTXSID2047060,COc1cc(ccc1)OC,"InChI=1S/C8H10O2/c1-9-7-4-3-5-8(6-7)10-2/h3-6H,1-2H3",DPZNOMCNRMUKPS-UHFFFAOYSA-N,?,217.5,101522
101523,151-18-8,151-18-8,NCCC#N,"Propanenitrile, 3-amino-",Aminopropionitrile,3-aminopropanenitrile,20584,DTXSID6048418,NCCC#N,"InChI=1S/C3H6N2/c4-2-1-3-5/h1-2,4H2",AGSPXMVUFBBBMO-UHFFFAOYSA-N,?,185.0,101523
101525,151-56-4,151-56-4,C1CN1,AZIRIDINE,Ethyleneimine,aziridine,20586,DTXSID8020599,C1CN1,"InChI=1S/C2H5N/c1-2-3-1/h3H,1-2H2",NOWKCMXCCJGMRR-UHFFFAOYSA-N,?,56.0,101525
101526,151-67-7,151-67-7,FC(F)(F)C(Cl)Br,HALOTHANE,Halothane,"2-bromo-2-chloro-1,1,1-trifluoroethane",20587,DTXSID4025371,FC(F)(F)C(Cl)Br,"InChI=1S/C2HBrClF3/c3-1(4)2(5,6)7/h1H",BCQZXOMGPXTTIC-UHFFFAOYSA-N,?,50.2,101526
101527,156-10-5,156-10-5,O=Nc1ccc(cc1)Nc1ccccc1,4-NITROSO-N-PHENYLBENZENAMINE,4-Nitrosodiphenylamine,4-nitroso-N-phenylaniline,20588,DTXSID1021031,O=Nc1ccc(cc1)Nc1ccccc1,"InChI=1S/C12H10N2O/c15-14-12-8-6-11(7-9-12)13-10-4-2-1-3-5-10/h1-9,13H",OIJHFHYPXWSVPF-UHFFFAOYSA-N,?,292.0,101527
101530,156-59-2|156-60-5,156-59-2|156-60-5,Cl/C=C\Cl,"1,2-DICHLOROETHENE (CIS), 1,2-DICHLOROETHENE (TRANS)","(Z)-1,2-Dichloroethylene","(Z)-1,2-dichloroethene",20591|20592,DTXSID2024030|DTXSID7024031,ClC=CCl,InChI=1S/C2H2Cl2/c3-1-2-4/h1-2H/b2-1-,KFUSEUYYWQURPO-UPHRSURJSA-N,?,54.4,101530
101532,156-87-6,156-87-6,NCCCO,PROPANOLAMINE,3-Aminopropanol,3-Aminopropan-1-ol,20593,DTXSID0059746,NCCCO,"InChI=1S/C3H9NO/c4-2-1-3-5/h5H,1-4H2",WUGQZFFCHPXWKQ-UHFFFAOYSA-N,?,187.5,101532
101533,157-40-4,157-40-4,C1CC21CC2,SPIROPENTANE,Spiropentane,,20594,DTXSID10166181,C1CC21CC2,InChI=1S/C5H8/c1-2-5(1)3-4-5/h1-4H2,OGNAOIGAPPSUMG-UHFFFAOYSA-N,?,39.0,101533
101535,185-94-4,NOCAS_870491,C1C2CCC21,BICYCLO(2.1.0)PENTANE,,,20596,DTXSID90870491,C1C2CCC21,"InChI=1S/C5H8/c1-2-5-3-4(1)5/h4-5H,1-3H2",MHLPKAGDPWUOOT-UHFFFAOYSA-N,?,45.5,101535
101537,191-07-1,191-07-1,c1cc2ccc3ccc4ccc5ccc6ccc1c1c6c5c4c3c21,CORONENE,Coronene,coronene,20597,DTXSID5047740,c1cc2ccc3ccc4ccc5ccc6ccc1c1c6c5c4c3c21,InChI=1S/C24H12/c1-2-14-5-6-16-9-11-18-12-10-17-8-7-15-4-3-13(1)19-20(14)22(16)24(18)23(17)21(15)19/h1-12H,VPUGDVKSAQVFFS-UHFFFAOYSA-N,?,525.0,101537
101538,193-39-5,193-39-5,c1c2c3c4c5c1cccc5ccc4ccc3-c1ccccc1-2,"INDENO(1,2,3-CD)PYRENE","Indeno(1,2,3-cd)pyrene","indeno[1,2,3-cd]pyrene",20598,DTXSID8024153,c1c2c3c4c5c1cccc5ccc4ccc3-c1ccccc1-2,InChI=1S/C22H12/c1-2-7-17-16(6-1)18-11-10-14-9-8-13-4-3-5-15-12-19(17)22(18)21(14)20(13)15/h1-12H,SXQBHARYMNFBPS-UHFFFAOYSA-N,?,536.0,101538
101540,205-25-4,205-25-4,c1cccc2c3c(ccc21)[nH]c1ccccc13,7H-Benzo[c]carbazole,7H-Benzo(c)carbazole,7H-Benzo[c]carbazole,20600,DTXSID00174477,c1cccc2c3c(ccc21)[nH]c1ccccc13,"InChI=1S/C16H11N/c1-2-6-12-11(5-1)9-10-15-16(12)13-7-3-4-8-14(13)17-15/h1-10,17H",UGFOTZLGPPWNPY-UHFFFAOYSA-N,?,448.0,101540
101541,206-44-0,206-44-0,c1ccc2c3c(cccc31)-c1ccccc1-2,FLUORANTHENE,Fluoranthene,fluoranthene,20601,DTXSID3024104,c1ccc2c3c(cccc31)-c1ccccc1-2,InChI=1S/C16H10/c1-2-8-13-12(7-1)14-9-3-5-11-6-4-10-15(13)16(11)14/h1-10H,GVEPBJHOBDJJJI-UHFFFAOYSA-N,?,384.0,101541
101542,207-08-9,207-08-9,c1c2-c3cccc4cccc(c43)-c2cc2ccccc21,BENZO(K)FLUORANTHENE,Benzo(k)fluoranthene,benzo[k]fluoranthene,20602,DTXSID0023909,c1c2-c3cccc4cccc(c43)-c2cc2ccccc21,InChI=1S/C20H12/c1-2-6-15-12-19-17-10-4-8-13-7-3-9-16(20(13)17)18(19)11-14(15)5-1/h1-12H,HAXBIWFMXWRORI-UHFFFAOYSA-N,?,480.0,101542
101544,213-46-7,213-46-7,c1cc2c(ccc3c4ccccc4ccc23)c2ccccc21,PICENE,Picene,PICENE,20604,DTXSID8073895,c1cc2c(ccc3c4ccccc4ccc23)c2ccccc21,InChI=1S/C22H14/c1-3-7-17-15(5-1)9-11-21-19(17)13-14-20-18-8-4-2-6-16(18)10-12-22(20)21/h1-14H,GBROPGWFBFCKAG-UHFFFAOYSA-N,?,519.0,101544
101545,215-58-7,215-58-7,c1c2c3ccccc3c3ccccc3c2cc2ccccc21,"1,2,3,4-DIBENZANTHRACENE","Dibenz[a,c]anthracene",benzo[f]tetraphene,20605,DTXSID9049245,c1c2c3ccccc3c3ccccc3c2cc2ccccc21,InChI=1S/C22H14/c1-2-8-16-14-22-20-12-6-4-10-18(20)17-9-3-5-11-19(17)21(22)13-15(16)7-1/h1-14H,RAASUWZPTOJQAY-UHFFFAOYSA-N,?,524.0,101545
101546,217-59-4,217-59-4,c1cccc2c1c1ccccc1c1ccccc12,TRIPHENYLENE,Triphenylene,Triphenylene,20606,DTXSID9059757,c1cccc2c1c1ccccc1c1ccccc12,InChI=1S/C18H12/c1-2-8-14-13(7-1)15-9-3-4-11-17(15)18-12-6-5-10-16(14)18/h1-12H,SLGBZMMZGDRARJ-UHFFFAOYSA-N,?,425.0,101546
101548,229-87-8,229-87-8,c1[n]c2ccccc2c2ccccc21,PHENANTHRIDINE,Phenanthridine,Phenanthridine,20608,DTXSID3074288,c1[n]c2ccccc2c2ccccc21,InChI=1S/C13H9N/c1-2-6-11-10(5-1)9-14-13-8-4-3-7-12(11)13/h1-9H,RDOWQLZANAYVLL-UHFFFAOYSA-N,?,349.0,101548
101549,230-27-3,230-27-3,c1cccc2ccc3ccc[n]c3c21,BENZO(H)QUINOLINE,Benzo[h]quinoline,Benzo[h]quinoline,20609,DTXSID1075199,c1cccc2ccc3ccc[n]c3c21,InChI=1S/C13H9N/c1-2-6-12-10(4-1)7-8-11-5-3-9-14-13(11)12/h1-9H,WZJYKHNJTSNBHV-UHFFFAOYSA-N,?,339.0,101549
101551,238-84-6,238-84-6,C1c2c3ccccc3ccc2-c2ccccc21,11H-BENZO(A)FLUORENE,11H-Benzo[a]fluorene,11H-Benzo[a]fluorene,20610,DTXSID3075204,C1c2c3ccccc3ccc2-c2ccccc21,"InChI=1S/C17H12/c1-3-7-14-12(5-1)9-10-16-15-8-4-2-6-13(15)11-17(14)16/h1-10H,11H2",HKMTVMBEALTRRR-UHFFFAOYSA-N,?,405.0,101551
101553,253-82-7,253-82-7,c1[n]c[n]c2ccccc21,QUINAZOLINE,Quinazoline,Quinazoline,20612,DTXSID7075214,c1[n]c[n]c2ccccc21,InChI=1S/C8H6N2/c1-2-4-8-7(3-1)5-9-6-10-8/h1-6H,JWVCLYRUEFBMGU-UHFFFAOYSA-N,?,241.0,101553
101554,254-87-5,254-87-5,c1[n][n]c2ccccc2[n]1,"1,2,4-BENZOTRIAZINE","1,2,4-Benzotriazene","1,2,4-Benzotriazine",20613,DTXSID60180054,c1[n][n]c2ccccc2[n]1,InChI=1S/C7H5N3/c1-2-4-7-6(3-1)8-5-9-10-7/h1-5H,GDAXJBDYNVDMDF-UHFFFAOYSA-N,?,237.5,101554
101555,260-94-6,260-94-6,c1c2ccccc2[n]c2ccccc21,ACRIDINE,Acridine,Acridine,20614,DTXSID8059766,c1c2ccccc2[n]c2ccccc21,InChI=1S/C13H9N/c1-3-7-12-10(5-1)9-11-6-2-4-8-13(11)14-12/h1-9H,DZBUGLKDJFMEHC-UHFFFAOYSA-N,?,345.5,101555
101557,271-44-3,271-44-3,c1[n][nH]c2ccccc21,INDAZOLE,Indazole,1H-Indazole,20616,DTXSID4075374,c1[n][nH]c2ccccc21,"InChI=1S/C7H6N2/c1-2-4-7-6(3-1)5-8-9-7/h1-5H,(H,8,9)",BAXOFTOLAUCFNW-UHFFFAOYSA-N,?,269.0,101557
101558,271-58-9,271-95-4,c1[n]oc2ccccc21,BENZISOXAZOLE,Benz(d)isoxazole,"1,2-benzoxazole",20617,DTXSID20181567,c1[n]oc2ccccc21,InChI=1S/C7H5NO/c1-2-4-7-6(3-1)5-8-9-7/h1-5H,KTZQTRPPVKQPFO-UHFFFAOYSA-N,?,215.0,101558
101559,271-89-6,271-89-6,c1cccc2occc21,BENZOFURAN,"2,3-Benzofuran",1-benzofuran,20618,DTXSID6020141,c1cccc2occc21,InChI=1S/C8H6O/c1-2-4-8-7(3-1)5-6-9-8/h1-6H,IANQTJSKSUMEQM-UHFFFAOYSA-N,?,174.0,101559
101561,273-13-2,273-13-2,c1cccc2[n][s][n]c21,"2,1,3-BENZOTHIADIAZOLE","2,1,3-Benzothiadiazole","2,1,3-Benzothiadiazole",20620,DTXSID3059767,c1cccc2[n][s][n]c21,InChI=1S/C6H4N2S/c1-2-4-6-5(3-1)7-9-8-6/h1-4H,PDQRQJVPEFGVRK-UHFFFAOYSA-N,?,203.0,101561
101562,273-53-0,273-53-0,c1[n]c2ccccc2o1,BENZOXAZOLE,Benzoxazole,"1,3-benzoxazole",20621,DTXSID8059768,c1[n]c2ccccc2o1,InChI=1S/C7H5NO/c1-2-4-7-6(3-1)8-5-9-7/h1-5H,BCMCBBGGLRIHSE-UHFFFAOYSA-N,?,182.5,101562
101563,274-09-9,274-09-9,C1Oc2ccccc2O1,"1,3-BENZODIOXOLE","1,3-Benzodioxolane","1,3-benzodioxole",20622,DTXSID9051951,C1Oc2ccccc2O1,"InChI=1S/C7H6O2/c1-2-4-7-6(3-1)8-5-9-7/h1-4H,5H2",FTNJQNQLEGKTGD-UHFFFAOYSA-N,?,172.5,101563
101565,278-06-8,278-06-8,C1C2C3C4C1C4C32,Quadricyclane,Quadricyclane,,20624,DTXSID30182121,C1C2C3C4C1C4C32,"InChI=1S/C7H8/c1-2-4-5(2)7-3(1)6(4)7/h2-7H,1H2",DGZUEIPKRRSMGK-UHFFFAOYSA-N,?,112.0,101565
101566,279-23-2,279-23-2,C1C2CCC1CC2,BICYCLO(2.2.1.)HEPTANE,Bicyclo[2.2.1]heptane,Bicyclo[2.2.1]heptane,20625,DTXSID4075376,C1C2CCC1CC2,"InChI=1S/C7H12/c1-2-7-4-3-6(1)5-7/h6-7H,1-5H2",UMRZSTCPUPJPOJ-UHFFFAOYSA-N,?,105.3,101566
101567,280-57-9,280-57-9,C1CN2CCN1CC2,"1,4-DIAZABICYCLO(2,2,2)OCTANE  (DABCO)","1,4-Diazabicyclo[2.2.2]octane","1,4-diazabicyclo[2.2.2]octane",20626,DTXSID0022016,C1CN2CCN1CC2,InChI=1S/C6H12N2/c1-2-8-5-3-7(1)4-6-8/h1-6H2,IMNIMPAHZVJRPE-UHFFFAOYSA-N,?,174.0,101567
101570,286-08-8,NOCAS_870493,C1C2CCCCC21,BICYCLO(4.1.0)HEPTANE,,,20628,DTXSID10870493,C1C2CCCCC21,"InChI=1S/C7H12/c1-2-4-7-5-6(7)3-1/h6-7H,1-5H2",WPHGSKGZRAQSGP-UHFFFAOYSA-N,?,116.5,101570
101571,286-18-0,NOCAS_870494,C1CCCC2NC21,7-AZABICYCLO[4.1.0]HEPTANE,7-Azabicyclo[4.1.0]heptane,C6H11N,20629,DTXSID70870494,C1CCCC2NC21,"InChI=1S/C6H11N/c1-2-4-6-5(3-1)7-6/h5-7H,1-4H2",DINLIZUFVHTMDX-UHFFFAOYSA-N,?,150.0,101571
101572,286-20-4,286-20-4,C1CCCC2OC21,7-Oxabicyclo 4.1.0 heptane,Cyclohexene oxide,7-oxabicyclo[4.1.0]heptane,20630,DTXSID6024880,C1CCCC2OC21,"InChI=1S/C6H10O/c1-2-4-6-5(3-1)7-6/h5-6H,1-4H2",ZWAJLVLEBYIOTI-UHFFFAOYSA-N,?,131.5,101572
101574,287-27-4,287-27-4,C1CCS1,THIACYCLOBUTANE,Thietane,Thietane,20632,DTXSID7059773,C1CCS1,InChI=1S/C3H6S/c1-2-4-3-1/h1-3H2,XSROQCDVUIHRSI-UHFFFAOYSA-N,?,95.0,101574
101575,287-92-3,287-92-3,C1CCCC1,CYCLOPENTANE,Cyclopentane,cyclopentane,20633,DTXSID6024886,C1CCCC1,InChI=1S/C5H10/c1-2-4-5-3-1/h1-5H2,RGSFGYAAUTVSQA-UHFFFAOYSA-N,?,49.3,101575
101576,288-13-1,288-13-1,c1cc[n][nH]1,PYRAZOLE,Pyrazole,1H-Pyrazole,20634,DTXSID2059774,c1cc[n][nH]1,"InChI=1S/C3H4N2/c1-2-4-5-3-1/h1-3H,(H,4,5)",WTKZEGDFNFYCGP-UHFFFAOYSA-N,?,187.0,101576