ChemID,source_casrn,CAS,SMILES,NAME,preferred_name,iupac,MPID,dsstox_substance_id,Canonical_QSARr,InChI_Code_QSARr,InChI Key_QSARr,Salt_Solvent,BP,ID
105523,20232-11-5,20232-11-5,Cc1ccc2C=CCc2c1,6-Methyl-1H-indene,6-Methyl-1H-indene,6-Methyl-1H-indene,24367,DTXSID50174083,Cc1ccc2C=CCc2c1,"InChI=1S/C10H10/c1-8-5-6-9-3-2-4-10(9)7-8/h2-3,5-7H,4H2,1H3",RIGBUHPGSPCSLT-UHFFFAOYSA-N,?,207.0,105523
105528,20278-88-0,NOCAS_871311,CCC(C)C(C)(C)CCC,"3,4,4-TRIMETHYLHEPTANE",,,24371,DTXSID80871311,CCC(C)C(C)(C)CCC,"InChI=1S/C10H22/c1-6-8-10(4,5)9(3)7-2/h9H,6-8H2,1-5H3",BLNBSBLKPFFJKQ-UHFFFAOYSA-N,?,161.1,105528
105533,20324-33-8,20324-33-8,COCC(C)OCC(C)OCC(C)O,TRIPROPYLENE GLYCOL METHYL ETHER,1-[2-(2-Methoxy-1-methylethoxy)-1-methylethoxy]-2-propanol,1-({1-[(1-methoxypropan-2-yl)oxy]propan-2-yl}oxy)propan-2-ol,24375,DTXSID6021616,COCC(C)OCC(C)OCC(C)O,"InChI=1S/C10H22O4/c1-8(11)5-13-10(3)7-14-9(2)6-12-4/h8-11H,5-7H2,1-4H3",HPFDGTFXAVIVTH-UHFFFAOYSA-N,?,250.0,105533
105537,20633-11-8,20633-11-8,CCCCCCO[N+]([O-])=O,1-HEXYL NITRATE,"Nitric acid, hexyl ester",HEXYL NITRATE,24379,DTXSID8066636,CCCCCCO[N+]([O-])=O,"InChI=1S/C6H13NO3/c1-2-3-4-5-6-10-7(8)9/h2-6H2,1H3",AGDYNDJUZRMYRG-UHFFFAOYSA-N,?,171.0,105537
105542,20820-82-0,20820-82-0,Cc1c(C)cc(C)[n]c1C,"Pyridine, 2,3,4,6-tetramethyl-","2,3,4,6-Tetramethylpyridine","2,3,4,6-Tetramethylpyridine",24383,DTXSID00174937,Cc1c(C)cc(C)[n]c1C,"InChI=1S/C9H13N/c1-6-5-7(2)10-9(4)8(6)3/h5H,1-4H3",QBSVEFGWBSANTE-UHFFFAOYSA-N,?,203.0,105542
105546,21326-62-5,NOCAS_871321,CC(Cl)C(C)(C)O,"2-Butanol, 3-chloro-2-methyl-",PUBCHEM_21572590,C5H11ClO,24387,DTXSID30871321,CC(Cl)C(C)(C)O,"InChI=1S/C5H11ClO/c1-4(6)5(2,3)7/h4,7H,1-3H3",YYHQXKBKFKTDMP-UHFFFAOYSA-N,?,141.5,105546
105552,21535-97-7,21535-97-7,Cc1coc2ccccc21,3-Methyl-benzofuran,3-Methylbenzofuran,3-methyl-1-benzofuran,24392,DTXSID30175871,Cc1coc2ccccc21,"InChI=1S/C9H8O/c1-7-6-10-9-5-3-2-4-8(7)9/h2-6H,1H3",ZRXHLJNBNWVNIM-UHFFFAOYSA-N,?,197.0,105552
105556,21700-31-2,NOCAS_871328,ClCC(Cl)C(Cl)(Cl)Cl,"1,1,1,2,3-pentachloropropane",PUBCHEM_13454491,C3H3Cl5,24396,DTXSID50871328,ClCC(Cl)C(Cl)(Cl)Cl,"InChI=1S/C3H3Cl5/c4-1-2(5)3(6,7)8/h2H,1H2",ZXPCCXXSNUIVNK-UHFFFAOYSA-N,?,179.5,105556
105561,21964-44-3,NOCAS_865023,CCCCCCC(O)C=C,1-Nonen-3-ol,,,24400,DTXSID30865023,CCCCCCC(O)C=C,"InChI=1S/C9H18O/c1-3-5-6-7-8-9(10)4-2/h4,9-10H,2-3,5-8H2,1H3",DWUPJMHAPOQKGJ-UHFFFAOYSA-N,?,193.5,105561
105566,22118-12-3,NOCAS_871332,CCC(Br)C(=O)Cl,2-Bromo-butyryl chloride,,,24405,DTXSID40871332,CCC(Br)C(=O)Cl,"InChI=1S/C4H6BrClO/c1-2-3(5)4(6)7/h3H,2H2,1H3",DROZQELYZZXYSX-UHFFFAOYSA-N,?,151.0,105566
105570,22374-89-6,4187-57-9,C[C@H](N)CCc1ccccc1,"BENZENEPROPANAMINE, ?-METHYL-",AG-F-48804,C10H15N,24409,DTXSID30426390,CC(N)CCc1ccccc1,"InChI=1S/C10H15N/c1-9(11)7-8-10-5-3-2-4-6-10/h2-6,9H,7-8,11H2,1H3",WECUIGDEWBNQJJ-UHFFFAOYSA-N,?,223.0,105570
105576,22618-23-1,22618-23-1,Cc1cc(ccc1C)OC(C)=O,"Acetic acid 3,4-dimethyl-phenyl ester","3,4-Xylyl acetate","(3,4-dimethylphenyl) acetate",24414,DTXSID10177136,Cc1cc(ccc1C)OC(C)=O,"InChI=1S/C10H12O2/c1-7-4-5-10(6-8(7)2)12-9(3)11/h4-6H,1-3H3",ZFIOOTIKKICLOR-UHFFFAOYSA-N,?,235.0,105576
105580,23010-04-0,23010-04-0,CCC(C)(Cl)CCl,"BUTANE, 1,2-DICHLORO-2-METHYL-","1,2-Dichloro-2-methylbutane","1,2-dichloro-2-methylbutane",24418,DTXSID2021571,CCC(C)(Cl)CCl,"InChI=1S/C5H10Cl2/c1-3-5(2,7)4-6/h3-4H2,1-2H3",KVPMOKIQASUYOV-UHFFFAOYSA-N,?,134.0,105580
105584,23287-26-5,23287-26-5,Cc1cccc(c1O)C(=O)OC,"Benzoic acid, 2-hydroxy-3-methyl-, methyl ester","Benzoic acid, 2-hydroxy-3-methyl-, methyl ester",Methyl 2-hydroxy-3-methylbenzoate,24422,DTXSID1066869,Cc1cccc(c1O)C(=O)OC,"InChI=1S/C9H10O3/c1-6-4-3-5-7(8(6)10)9(11)12-2/h3-5,10H,1-2H3",SUHLUMKZPUMAFP-UHFFFAOYSA-N,?,235.0,105584
105588,23511-70-8,23511-70-8,CCCC(=O)OCCOc1ccccc1,"Butanoic acid, 2-phenoxyethyl ester",2-Phenoxyethyl butyrate,2-(phenoxy)ethyl butanoate,24426,DTXSID5066902,CCCC(=O)OCCOc1ccccc1,"InChI=1S/C12H16O3/c1-2-6-12(13)15-10-9-14-11-7-4-3-5-8-11/h3-5,7-8H,2,6,9-10H2,1H3",OOZDRLVUFHSKIQ-UHFFFAOYSA-N,?,251.0,105588
105592,23733-68-8,NOCAS_871338,CC(C)C1CCC(C)C(=O)C=1,3-Isopropyl-6-methyl-cyclohex-2-enone,,,24430,DTXSID00871338,CC(C)C1CCC(C)C(=O)C=1,"InChI=1S/C10H16O/c1-7(2)9-5-4-8(3)10(11)6-9/h6-8H,4-5H2,1-3H3",RLYSXAZAJUMULG-UHFFFAOYSA-N,?,235.5,105592
105597,24425-40-9,24425-40-9,Nc1cc2CCCc2cc1,Indan-5-ylamine,Indan-5-amine,"2,3-dihydro-1H-inden-5-amine",24434,DTXSID80179182,Nc1cc2CCCc2cc1,"InChI=1S/C9H11N/c10-9-5-4-7-2-1-3-8(7)6-9/h4-6H,1-3,10H2",LEWZOBYWGWKNCK-UHFFFAOYSA-N,?,248.0,105597
105602,24549-06-2,24549-06-2,Cc1cccc(CC)c1N,"Benzenamine, 2-ethyl-6-methyl-",2-Ethyl-6-methylaniline,2-ethyl-6-methylaniline,24438,DTXSID7027833,Cc1cccc(CC)c1N,"InChI=1S/C9H13N/c1-3-8-6-4-5-7(2)9(8)10/h4-6H,3,10H2,1-2H3",JJVKJJNCIILLRP-UHFFFAOYSA-N,?,231.0,105602
105610,25044-01-3,25044-01-3,CC(=C)C(=O)CC,"1-PENTEN-3-ONE, 2-METHYL-","1-Penten-3-one, 2-methyl-",2-methylpent-1-en-3-one,24444,DTXSID1073448,CC(=C)C(=O)CC,"InChI=1S/C6H10O/c1-4-6(7)5(2)3/h2,4H2,1,3H3",GHHGVSCQWPVENX-UHFFFAOYSA-N,?,118.5,105610
105621,25201-40-5,25201-40-5,CC(O)(CC=C)CC=C,"4-Methyl-hepta-1,6-dien-4-ol","1,6-Heptadien-4-ol, 4-methyl-","4-Methylhepta-1,6-dien-4-ol",24451,DTXSID20179868,CC(O)(CC=C)CC=C,"InChI=1S/C8H14O/c1-4-6-8(3,9)7-5-2/h4-5,9H,1-2,6-7H2,3H3",WAXJJHZQRWWQIR-UHFFFAOYSA-N,?,158.4,105621
105632,25346-33-2,NOCAS_871348,CCCC(C)CBr,"Pentane, 1-bromo-2-methyl-",,,24456,DTXSID50871348,CCCC(C)CBr,"InChI=1S/C6H13Br/c1-3-4-6(2)5-7/h6H,3-5H2,1-2H3",GSYMWZIKZUHBKV-UHFFFAOYSA-N,?,141.0,105632
105642,25611-78-3,34645-25-5,N[C@H](Cc1ccccc1)c1ccccc1,"1,2-Diphenyl-ethylamine",34645-25-5,C14H15N,24460,DTXSID50362564,NC(Cc1ccccc1)c1ccccc1,"InChI=1S/C14H15N/c15-14(13-9-5-2-6-10-13)11-12-7-3-1-4-8-12/h1-10,14H,11,15H2",DTGGNTMERRTPLR-UHFFFAOYSA-N,?,311.0,105642
105646,26103-08-2,26103-08-2,FC(F)OC(C(F)(F)F)C(F)(F)F,CHF2-O-CH(CF3)CF3,26103-08-2,C4H2F8O,24464,DTXSID60448843,FC(F)OC(C(F)(F)F)C(F)(F)F,"InChI=1S/C4H2F8O/c5-2(6)13-1(3(7,8)9)4(10,11)12/h1-2H",UNIYHTKWMKXESF-UHFFFAOYSA-N,?,42.1,105646
105655,26675-46-7,26675-46-7,FC(F)OC(Cl)C(F)(F)F,ISOFLURANE,Isoflurane,"2-chloro-2-(difluoromethoxy)-1,1,1-trifluoroethane",24469,DTXSID3020752,FC(F)OC(Cl)C(F)(F)F,"InChI=1S/C3H2ClF5O/c4-1(3(7,8)9)10-2(5)6/h1-2H",PIWKPBJCKXDKJR-UHFFFAOYSA-N,?,48.5,105655
105663,27519-02-4,27519-02-4,CCCCCCCCCCCCC/C=C\CCCCCCCC,"9-Tricosene, (Z)-",(Z)-9-Tricosene,(9Z)-tricos-9-ene,24474,DTXSID0032653,CCCCCCCCCCCCCC=CCCCCCCCC,"InChI=1S/C23H46/c1-3-5-7-9-11-13-15-17-19-21-23-22-20-18-16-14-12-10-8-6-4-2/h17,19H,3-16,18,20-23H2,1-2H3/b19-17+",IGOWHGRNPLFNDJ-HTXNQAPBSA-N,?,378.0,105663
105668,28715-26-6,28715-26-6,Cc1ccc(C)c2ccoc12,"BENZOFURAN, 4,7-DIMETHYL-","4,7-Dimethylbenzofuran","4,7-dimethyl-1-benzofuran",24478,DTXSID00182875,Cc1ccc(C)c2ccoc12,"InChI=1S/C10H10O/c1-7-3-4-8(2)10-9(7)5-6-11-10/h3-6H,1-2H3",PFXVPEGRXODMIQ-UHFFFAOYSA-N,?,216.0,105668
105675,29136-19-4,70356-32-0,CCCCCCCCCCCCCCCCCCCc1ccccc1,"Benzene, nonadecyl-","Benzene, C14-26-alkyl derivs.",nonadecylbenzene,24482,DTXSID7028986,CCCCCCCCCCCCCCCCCCCc1ccccc1,"InChI=1S/C25H44/c1-2-3-4-5-6-7-8-9-10-11-12-13-14-15-16-17-19-22-25-23-20-18-21-24-25/h18,20-21,23-24H,2-17,19,22H2,1H3",SHWJJBRTHGGZBE-UHFFFAOYSA-N,?,419.0,105675
105680,29911-27-1,29911-27-1,CCCOCC(C)OCC(C)O,"2-Propanol, 1-(1-methyl-2-propoxyethoxy)-",Butyl dipropasol solvent,1-[(1-propoxypropan-2-yl)oxy]propan-2-ol,24486,DTXSID3033276,CCCOCC(C)OCC(C)O,"InChI=1S/C9H20O3/c1-4-5-11-7-9(3)12-6-8(2)10/h8-10H,4-7H2,1-3H3",WEZPLQKRXDBPEP-UHFFFAOYSA-N,?,212.0,105680
105685,30273-11-1,NOCAS_865535,CCC(C)c1ccc(N)cc1,"Benzenamine, 4-(1-methylpropyl)-",,,24490,DTXSID00865535,CCC(C)c1ccc(N)cc1,"InChI=1S/C10H15N/c1-3-8(2)9-4-6-10(11)7-5-9/h4-8H,3,11H2,1-2H3",NVVVQTNTLIAISI-UHFFFAOYSA-N,?,238.0,105685
105690,31805-48-8,31805-48-8,Cc1cc[s]c1CC,2-Ethyl-3-methyl-thiophene,2-Ethyl-3-methylthiophene,2-Ethyl-3-methylthiophene,24494,DTXSID60185680,Cc1cc[s]c1CC,"InChI=1S/C7H10S/c1-3-7-6(2)4-5-8-7/h4-5H,3H2,1-2H3",VVSCPYCHXFEKLF-UHFFFAOYSA-N,?,161.0,105690
105694,32226-54-3,32226-54-3,CC1=CCC(C[C@@H]1O)C(C)(C)O,"trans-p-Menth-6-ene-2,8-diol",Sobrepin,(1S)-5-(2-hydroxypropan-2-yl)-2-methylcyclohex-2-en-1-ol,24498,DTXSID60185983,CC1=CCC(CC1O)C(C)(C)O,"InChI=1S/C10H18O2/c1-7-4-5-8(6-9(7)11)10(2,3)12/h4,8-9,11-12H,5-6H2,1-3H3",OMDMTHRBGUBUCO-UHFFFAOYSA-N,?,270.5,105694
105699,32778-16-8,NOCAS_871371,FC(F)OCC(F)F,"2-(DIFLUOROMETHOXY)-1,1-DIFLUOROETHANE",,,24502,DTXSID80871371,FC(F)OCC(F)F,"InChI=1S/C3H4F4O/c4-2(5)1-8-3(6)7/h2-3H,1H2",RPVUQXHGCXIWHO-UHFFFAOYSA-N,?,55.3,105699
105703,33429-70-8,NOCAS_871375,ClC(Cl)c1cc(Cl)c(Cl)cc1Cl,"1,2,4-Trichloro-5-dichloromethyl-benzene",,,24506,DTXSID20871375,ClC(Cl)c1cc(Cl)c(Cl)cc1Cl,"InChI=1S/C7H3Cl5/c8-4-2-6(10)5(9)1-3(4)7(11)12/h1-2,7H",IPXYEDOPGOVJCG-UHFFFAOYSA-N,?,280.5,105703
105708,35182-51-5,35182-51-5,CCC(CC)c1cc[n]cc1,"Pyridine, 4-(1-ethylpropyl)-",4-(1-Ethylpropyl)pyridine,4-pentan-3-ylpyridine,24510,DTXSID5067895,CCC(CC)c1cc[n]cc1,"InChI=1S/C10H15N/c1-3-9(4-2)10-5-7-11-8-6-10/h5-9H,3-4H2,1-2H3",YHXYCIZBTSECRP-UHFFFAOYSA-N,?,217.0,105708
105713,36301-29-8,NOCAS_871378,Cc1ccccc1CC(C)C,1-Isobutyl-2-methyl-benzene,,,24514,DTXSID00871378,Cc1ccccc1CC(C)C,"InChI=1S/C11H16/c1-9(2)8-11-7-5-4-6-10(11)3/h4-7,9H,8H2,1-3H3",XNMPJDZAHSMAMN-UHFFFAOYSA-N,?,196.0,105713
105718,36701-01-6,36701-01-6,CCCCC(=O)OCc1ccco1,"Pentanoic acid, 2-furanylmethyl ester","Pentanoic acid, 2-furanylmethyl ester",furan-2-ylmethyl pentanoate,24518,DTXSID8067993,CCCCC(=O)OCc1ccco1,"InChI=1S/C10H14O3/c1-2-3-6-10(11)13-8-9-5-4-7-12-9/h4-5,7H,2-3,6,8H2,1H3",HRYAVTBTUKVHBU-UHFFFAOYSA-N,?,228.0,105718
105722,37493-70-2,NOCAS_871383,CCCCC(O)CCCCCC,Undecan-5-ol,,,24522,DTXSID50871383,CCCCC(O)CCCCCC,"InChI=1S/C11H24O/c1-3-5-7-8-10-11(12)9-6-4-2/h11-12H,3-10H2,1-2H3",PCFOZHPCKQPZCN-UHFFFAOYSA-N,?,229.0,105722
105726,39761-61-0,39761-61-0,C/C=C\CC(C)(C)C,"2-HEXENE, 5,5-DIMETHYL-, (Z)-",,,24526,DTXSID20879255,CC=CCC(C)(C)C,"InChI=1S/C8H16/c1-5-6-7-8(2,3)4/h5-6H,7H2,1-4H3/b6-5+",NWZJLSKAFZXSQH-AATRIKPKSA-N,?,106.9,105726
105730,40571-45-7,40571-45-7,CC1(N)CCCC1,"CYCLOPENTANAMINE, 1-METHYL-","Cyclopentanamine, 1-methyl-",C6H13N,24530,DTXSID10334525,CC1(N)CCCC1,"InChI=1S/C6H13N/c1-6(7)4-2-3-5-6/h2-5,7H2,1H3",TWASBYPJZBHZQJ-UHFFFAOYSA-N,?,121.0,105730
105734,42027-23-6,NOCAS_871390,CC(O)C(O)CC,"Pentane-2,3-diol",,,24534,DTXSID20871390,CC(O)C(O)CC,"InChI=1S/C5H12O2/c1-3-5(7)4(2)6/h4-7H,3H2,1-2H3",XLMFDCKSFJWJTP-UHFFFAOYSA-N,?,187.5,105734
105738,45102-52-1,45102-52-1,CC(=C)C(=O)OCC(F)(F)C(F)F,"2,2,3,3-Tetrafluoropropyl methacrylate","2,2,3,3-Tetrafluoropropyl methacrylate","2,2,3,3-tetrafluoropropyl 2-methylprop-2-enoate",24538,DTXSID50196386,CC(=C)C(=O)OCC(F)(F)C(F)F,"InChI=1S/C7H8F4O2/c1-4(2)5(12)13-3-7(10,11)6(8)9/h6H,1,3H2,2H3",RSVZYSKAPMBSMY-UHFFFAOYSA-N,?,124.0,105738
105742,50563-36-5,50563-36-5,COCCN(C(=O)CCl)c1c(C)cccc1C,Dimethachlor,Dimethachlor,"2-chloro-N-(2,6-dimethylphenyl)-N-(2-methoxyethyl)acetamide",24542,DTXSID3058111,COCCN(C(=O)CCl)c1c(C)cccc1C,"InChI=1S/C13H18ClNO2/c1-10-5-4-6-11(2)13(10)15(7-8-17-3)12(16)9-14/h4-6H,7-9H2,1-3H3",SCCDDNKJYDZXMM-UHFFFAOYSA-N,?,320.0,105742
105746,50876-32-9,50876-32-9,CC1(C)C[C@H](C)C[C@H](C)C1,"CYCLOHEXANE, 1,1,3,5-TETRAMETHYL-, CIS-",,,24546,DTXSID10876157,CC1(C)CC(C)CC(C)C1,"InChI=1S/C10H20/c1-8-5-9(2)7-10(3,4)6-8/h8-9H,5-7H2,1-4H3",WOJSMJIXPQLESQ-UHFFFAOYSA-N,?,152.5,105746
105750,51422-54-9,51422-54-9,CCOCCOC(C)(C)C,ETHYL T-BUTYL ETHYL DIETHER,"Propane, 2-(2-ethoxyethoxy)-2-methyl-",2-(2-Ethoxyethoxy)-2-methylpropane,24550,DTXSID7068637,CCOCCOC(C)(C)C,"InChI=1S/C8H18O2/c1-5-9-6-7-10-8(2,3)4/h5-7H2,1-4H3",NUNQKTCKURIZQX-UHFFFAOYSA-N,?,148.0,105750
105754,51772-30-6,51772-30-6,Cc1cc(ccc1)C(=O)CC,3-Methylphenyl ethyl ketone,3'-Methylpropiophenone,1-(3-methylphenyl)propan-1-one,24554,DTXSID90199699,Cc1cc(ccc1)C(=O)CC,"InChI=1S/C10H12O/c1-3-10(11)9-6-4-5-8(2)7-9/h4-7H,3H2,1-2H3",QHVNQIJBHWOZRJ-UHFFFAOYSA-N,?,235.0,105754
105758,52896-88-5,NOCAS_871401,CC(C)CC(CCC)CC,4-ETHYL-2-METHYLHEPTANE,,,24558,DTXSID70871401,CC(C)CC(CCC)CC,"InChI=1S/C10H22/c1-5-7-10(6-2)8-9(3)4/h9-10H,5-8H2,1-4H3",OJDKRASKNKPYDH-UHFFFAOYSA-N,?,158.0,105758
105762,52896-92-1,NOCAS_871405,CCCCC(C)C(C)(C)C,"2,2,3-TRIMETHYLHEPTANE",,,24562,DTXSID10871405,CCCCC(C)C(C)(C)C,"InChI=1S/C10H22/c1-6-7-8-9(2)10(3,4)5/h9H,6-8H2,1-5H3",ACYHSTUWOQNWCX-UHFFFAOYSA-N,?,157.8,105762
105766,52897-00-4,NOCAS_871408,CCC(C)(CCC)C(C)C,"3-ETHYL-2,3-DIMETHYLHEXANE",,,24566,DTXSID90871408,CCC(C)(CCC)C(C)C,"InChI=1S/C10H22/c1-6-8-10(5,7-2)9(3)4/h9H,6-8H2,1-5H3",PJIFKODHGMUPFH-UHFFFAOYSA-N,?,166.0,105766
105770,52897-05-9,NOCAS_871412,CC(C)(CC)C(CC)CC,"4-ETHYL-3,3-DIMETHYLHEXANE",,,24570,DTXSID80871412,CC(C)(CC)C(CC)CC,"InChI=1S/C10H22/c1-6-9(7-2)10(4,5)8-3/h9H,6-8H2,1-5H3",ZRTXVJYJVBTXHE-UHFFFAOYSA-N,?,162.9,105770
105774,52897-10-6,NOCAS_871416,CC(C)C(C)(C)C(C)CC,"2,3,3,4-TETRAMETHYLHEXANE",,,24574,DTXSID20871416,CC(C)C(C)(C)C(C)CC,"InChI=1S/C10H22/c1-7-9(4)10(5,6)8(2)3/h8-9H,7H2,1-6H3",HIHSOGFAVTVMCY-UHFFFAOYSA-N,?,164.6,105774
105778,52897-16-2,NOCAS_871420,CC(C)C(CC)(CC)CC,"3,3-DIETHYL-2-METHYLPENTANE",,,24578,DTXSID10871420,CC(C)C(CC)(CC)CC,"InChI=1S/C10H22/c1-6-10(7-2,8-3)9(4)5/h9H,6-8H2,1-5H3",DSSAZLXYIQIXGW-UHFFFAOYSA-N,?,172.0,105778
105783,53566-37-3,53566-37-3,CC#CCC(C)C,"2-HEXYNE, 5-METHYL-","2-Hexyne, 5-methyl-",5-methylhex-2-yne,24582,DTXSID30201785,CC#CCC(C)C,"InChI=1S/C7H12/c1-4-5-6-7(2)3/h7H,6H2,1-3H3",SVGAHRUSRQTQES-UHFFFAOYSA-N,?,102.5,105783
105787,54244-90-5,54244-90-5,CC(CCC)=C(CC)C(C)=O,"3-HEPTEN-2-ONE, 3-ETHYL-4-METHYL-","3-Hepten-2-one, 3-ethyl-4-methyl-",C10H18O,24586,DTXSID30336965,CC(CCC)=C(CC)C(C)=O,"InChI=1S/C10H18O/c1-5-7-8(3)10(6-2)9(4)11/h5-7H2,1-4H3/b10-8-",PUHMMKUISPITSC-NTMALXAHSA-N,?,190.0,105787
105791,54527-68-3,54527-68-3,CC(=O)CC(=O)OCCCl,"Butanoic acid, 3-oxo-, 2-chloroethyl ester",2-Chloroethyl acetoacetate,2-Chloroethyl 3-oxobutanoate,24590,DTXSID3068962,CC(=O)CC(=O)OCCCl,"InChI=1S/C6H9ClO3/c1-5(8)4-6(9)10-3-2-7/h2-4H2,1H3",JAEUQHNZRROYID-UHFFFAOYSA-N,?,198.0,105791
105795,54852-73-2,54852-73-2,CCOc1cc(ccc1)-c1ccccc1,"1,1'-BIPHENYL, 3-ETHOXY-","3-Ethoxy-1,1'-biphenyl",C14H14O,24594,DTXSID60323388,CCOc1cc(ccc1)-c1ccccc1,"InChI=1S/C14H14O/c1-2-15-14-10-6-9-13(11-14)12-7-4-3-5-8-12/h3-11H,2H2,1H3",WCZZIGCDPVIDGI-UHFFFAOYSA-N,?,305.0,105795
105799,54934-91-7,54934-91-7,CCC(C1CCCCC1)C1CCCCC1,"CYCLOHEXANE, 1,1'-PROPYLIDENEBIS-","1,1-Dicyclohexylpropane",1-cyclohexylpropylcyclohexane,24598,DTXSID20203450,CCC(C1CCCCC1)C1CCCCC1,"InChI=1S/C15H28/c1-2-15(13-9-5-3-6-10-13)14-11-7-4-8-12-14/h13-15H,2-12H2,1H3",ROFWOEQFASWFTK-UHFFFAOYSA-N,?,283.6,105799
105804,56425-91-3,56425-91-3,CC(C)C(O)(c1ccc(cc1)OC(F)(F)F)c1c[n]c[n]c1,FLURPRIMIDOL,Flurprimidol,2-methyl-1-(pyrimidin-5-yl)-1-[4-(trifluoromethoxy)phenyl]propan-1-ol,24603,DTXSID3024108,CC(C)C(O)(c1ccc(cc1)OC(F)(F)F)c1c[n]c[n]c1,"InChI=1S/C15H15F3N2O2/c1-10(2)14(21,12-7-19-9-20-8-12)11-3-5-13(6-4-11)22-15(16,17)18/h3-10,21H,1-2H3",VEVZCONIUDBCDC-UHFFFAOYSA-N,?,264.0,105804
105809,56961-82-1,NOCAS_871434,Clc1ccc(C(Cl)Cl)c(Cl)c1Cl,"1-(Dichloromethyl)-2,3,4-trichlorobenzene",,,24607,DTXSID00871434,Clc1ccc(C(Cl)Cl)c(Cl)c1Cl,"InChI=1S/C7H3Cl5/c8-4-2-1-3(7(11)12)5(9)6(4)10/h1-2,7H",GTQJFLXWDUNQKB-UHFFFAOYSA-N,?,278.0,105809
105813,56962-07-3,52005-46-6,O=C1OC(=O)c2c1ccc(Cl)c2Cl,"4,5-Dichloro-isobenzofuran-1,3-dione",Dichlorophthalic anhydride,"4,5-dichloro-2-benzofuran-1,3-dione",24611,DTXSID70199975,O=C1OC(=O)c2c1ccc(Cl)c2Cl,InChI=1S/C8H2Cl2O3/c9-4-2-1-3-5(6(4)10)8(12)13-7(3)11/h1-2H,GAIPRQZXSYSCRD-UHFFFAOYSA-N,?,329.0,105813
105819,57933-83-2,57933-83-2,CC(=C)OC(=O)Cl,"Chloroformic acid,isopropenyl ester",Isopropenyl chloroformate,prop-1-en-2-yl chloroformate,24615,DTXSID10206637,CC(=C)OC(=O)Cl,"InChI=1S/C4H5ClO2/c1-3(2)7-4(5)6/h1H2,2H3",AMMGCGVWJMRTQI-UHFFFAOYSA-N,?,102.0,105819
105825,60212-31-9,60212-31-9,CCCC#CCCCCCC,4-UNDECYNE,4-Undecyne,undec-4-yne,24620,DTXSID40208962,CCCC#CCCCCCC,"InChI=1S/C11H20/c1-3-5-7-9-11-10-8-6-4-2/h3-7,9,11H2,1-2H3",RUEKFLJTCZKAMH-UHFFFAOYSA-N,?,198.5,105825
105829,62127-47-3,NOCAS_871446,CC(Br)C(C)(Br)Br,"Butane, 2,2,3-tribromo-",,,24624,DTXSID70871446,CC(Br)C(C)(Br)Br,"InChI=1S/C4H7Br3/c1-3(5)4(2,6)7/h3H,1-2H3",JDWNTZIECWWBAO-UHFFFAOYSA-N,?,206.0,105829
105834,65530-93-0,NOCAS_871451,CCCC(C)CCN,"1-Hexanamine, 3-methyl-",,,24629,DTXSID20871451,CCCC(C)CCN,"InChI=1S/C7H17N/c1-3-4-7(2)5-6-8/h7H,3-6,8H2,1-2H3",AWBMXILPKKHYSO-UHFFFAOYSA-N,?,149.0,105834
105840,71200-79-8,71200-79-8,N#C/C(/Cl)=C/C#N,CHLOROFUMARONITRILE,,,24633,DTXSID50878751,N#CC(Cl)=CC#N,InChI=1S/C4HClN2/c5-4(3-7)1-2-6/h1H/b4-1-,VXBAYIAWNLPBHU-RJRFIUFISA-N,?,172.0,105840
105846,81777-89-1,81777-89-1,CC1(C)CON(Cc2ccccc2Cl)C1=O,CLOMAZONE,Clomazone,"2-(2-chlorobenzyl)-4,4-dimethyl-1,2-oxazolidin-3-one",24637,DTXSID1032355,CC1(C)CON(Cc2ccccc2Cl)C1=O,"InChI=1S/C12H14ClNO2/c1-12(2)8-16-14(11(12)15)7-9-5-3-4-6-10(9)13/h3-6H,7-8H2,1-2H3",KIEDNEWSYUYDSN-UHFFFAOYSA-N,?,275.0,105846
105852,95853-68-2,NOCAS_871474,CC(CCO)C(F)(F)F,"4,4,4-TRIFLUORO-3-METHYL-1-BUTANOL","4,4,4-trifluoro-3-methylbutan-1-ol",C5H9F3O,24641,DTXSID00871474,CC(CCO)C(F)(F)F,"InChI=1S/C5H9F3O/c1-4(2-3-9)5(6,7)8/h4,9H,2-3H2,1H3",JHKAMWUCXKBJBI-UHFFFAOYSA-N,?,139.5,105852
105858,128639-02-1,128639-02-1,CC1=NN(c2cc(CC(Cl)C(=O)OCC)c(Cl)cc2F)C(=O)N1C(F)F,Carfentrazone-ethyl,Carfentrazone-ethyl,"ethyl 2-chloro-3-{2-chloro-5-[4-(difluoromethyl)-3-methyl-5-oxo-4,5-dihydro-1H-1,2,4-triazol-1-yl]-4-fluorophenyl}propanoate",24645,DTXSID4032532,CC1=NN(c2cc(CC(Cl)C(=O)OCC)c(Cl)cc2F)C(=O)N1C(F)F,"InChI=1S/C15H14Cl2F3N3O3/c1-3-26-13(24)10(17)4-8-5-12(11(18)6-9(8)16)23-15(25)22(14(19)20)7(2)21-23/h5-6,10,14H,3-4H2,1-2H3",MLKCGVHIFJBRCD-UHFFFAOYSA-N,?,352.5,105858
105880,SRC003-84-3,NOCAS_871525,FC(F)(F)C(F)(F)C(F)(F)C(F)(F)C(F)(F)C(F)(F)C(F)(F)Cl,1-Chloro-pentadecafluoroheptane,,,24649,DTXSID50871525,FC(F)(F)C(F)(F)C(F)(F)C(F)(F)C(F)(F)C(F)(F)C(F)(F)Cl,"InChI=1S/C7ClF15/c8-6(19,20)4(15,16)2(11,12)1(9,10)3(13,14)5(17,18)7(21,22)23",MAUNZEOOXXBGIT-UHFFFAOYSA-N,?,108.0,105880
105883,SRC003-84-6,335-64-8,O=C(Cl)C(F)(F)C(F)(F)C(F)(F)C(F)(F)C(F)(F)C(F)(F)C(F)(F)F,Pentadecafluoro-octanoyl chloride,Pentadecafluorooctyl chloride,"2,2,3,3,4,4,5,5,6,6,7,7,8,8,8-pentadecafluorooctanoyl chloride",24651,DTXSID40187142,O=C(Cl)C(F)(F)C(F)(F)C(F)(F)C(F)(F)C(F)(F)C(F)(F)C(F)(F)F,"InChI=1S/C8ClF15O/c9-1(25)2(10,11)3(12,13)4(14,15)5(16,17)6(18,19)7(20,21)8(22,23)24",AQQBRCXWZZAFOK-UHFFFAOYSA-N,?,131.0,105883
100001,50-00-0,50-00-0,C=O,FORMALDEHYDE,Formaldehyde,formaldehyde,19091,DTXSID7020637,C=O,InChI=1S/CH2O/c1-2/h1H2,WSFSSNUMVMOOMR-UHFFFAOYSA-N,?,-19.1,100001
100002,50-32-8,50-32-8,c1c2ccccc2c2ccc3cccc4ccc1c2c34,BENZO(A)PYRENE,Benzo(a)pyrene,benzo[pqr]tetraphene,19092,DTXSID2020139,c1c2ccccc2c2ccc3cccc4ccc1c2c34,InChI=1S/C20H12/c1-2-7-17-15(4-1)12-16-9-8-13-5-3-6-14-10-11-18(17)20(16)19(13)14/h1-12H,FMMWHPNWAFZXNH-UHFFFAOYSA-N,?,495.0,100002
100003,50-79-3,50-79-3,OC(=O)c1cc(Cl)ccc1Cl,"2,5-DICHLOROBENZOIC ACID","2,5-Dichlorobenzoic acid","2,5-dichlorobenzoic acid",19093,DTXSID5024978,OC(=O)c1cc(Cl)ccc1Cl,"InChI=1S/C7H4Cl2O2/c8-4-1-2-6(9)5(3-4)7(10)11/h1-3H,(H,10,11)",QVTQYSFCFOGITD-UHFFFAOYSA-N,?,301.0,100003
100004,51-64-9|156-34-3|300-62-9,51-64-9|156-34-3|300-62-9,C[C@H](N)Cc1ccccc1,"DEXTROAMPHETAMINE, BENZENEETHANAMINE, A-METHYL-, (R)-, ALPHA-METHYLPHENETHYLAMINE",Dextroamphetamine,(2S)-1-phenylpropan-2-amine,19094|20589|20651,DTXSID8022907|DTXSID20166016|DTXSID4022600,CC(N)Cc1ccccc1,"InChI=1S/C9H13N/c1-8(10)7-9-5-3-2-4-6-9/h2-6,8H,7,10H2,1H3",KWTSXDURSIMDCE-UHFFFAOYSA-N,?,202.99999999999997,100004
100006,51-79-6,51-79-6,CCOC(N)=O,O-ETHYL CARBAMATE (URETHANE),Urethane,ethyl carbamate,19096,DTXSID9021427,CCOC(N)=O,"InChI=1S/C3H7NO2/c1-2-6-3(4)5/h2H2,1H3,(H2,4,5)",JOYRKODLDBILNP-UHFFFAOYSA-N,?,185.0,100006
100007,51-80-9,51-80-9,CN(C)CN(C)C,"Methanediamine, N,N,N',N'-tetramethyl-","Methanediamine, N,N,N',N'-tetramethyl-","N,N,N',N'-Tetramethylmethanediamine",19097,DTXSID1058761,CN(C)CN(C)C,"InChI=1S/C5H14N2/c1-6(2)5-7(3)4/h5H2,1-4H3",VGIVLIHKENZQHQ-UHFFFAOYSA-N,?,83.0,100007