ChemID,source_casrn,CAS,SMILES,NAME,preferred_name,iupac,MPID,dsstox_substance_id,Canonical_QSARr,InChI_Code_QSARr,InChI Key_QSARr,Salt_Solvent,Salt_Solvent_ID,MP,ID
101556,101-26-8,101-26-8,[Br-].CN(C)C(=O)Oc1ccc[n+](C)c1,Pyridostigmine Bromide,Pyridostigmine bromide,3-[(dimethylcarbamoyl)oxy]-1-methylpyridinium bromide,28836,DTXSID9023540,CN(C)C(=O)Oc1ccc[n+](C)c1,"InChI=1S/C9H13N2O2/c1-10(2)9(12)13-8-5-4-6-11(3)7-8/h4-7H,1-3H3/q+1",RVOLLAQWKVFTGE-UHFFFAOYSA-N,[Br-],1731,153.0,101556
101557,101-27-9,101-27-9,O=C(Nc1cc(Cl)ccc1)OCC#CCCl,BARBAN,Barban,4-chlorobut-2-yn-1-yl (3-chlorophenyl)carbamate,28837,DTXSID3041617,O=C(Nc1cc(Cl)ccc1)OCC#CCCl,"InChI=1S/C11H9Cl2NO2/c12-6-1-2-7-16-11(15)14-10-5-3-4-9(13)8-10/h3-5,8H,6-7H2,(H,14,15)",MCOQHIWZJUDQIC-UHFFFAOYSA-N,?,,75.0,101557
101559,101-33-7,NOCAS_871586,CCCC(CC(OCC)OCC)OCC,"Hexanal, 3-ethoxy-, diethyl acetal",,,28839,DTXSID10871586,CCCC(CC(OCC)OCC)OCC,"InChI=1S/C12H26O3/c1-5-9-11(13-6-2)10-12(14-7-3)15-8-4/h11-12H,5-10H2,1-4H3",SYPLTTUVUZHTJR-UHFFFAOYSA-N,?,,-100.0,101559
101561,101-38-2,101-38-2,O=C1C(Cl)=CC(C=C1Cl)=NCl,Gibbs Reagent,"2,5-Cyclohexadien-1-one, 2,6-dichloro-4-(chloroimino)-","2,6-dichloro-4-chloroiminocyclohexa-2,5-dien-1-one",28841,DTXSID2059229,O=C1C(Cl)=CC(C=C1Cl)=NCl,InChI=1S/C6H2Cl3NO/c7-4-1-3(10-9)2-5(8)6(4)11/h1-2H,YHUMTHWQGWPJOQ-UHFFFAOYSA-N,?,,66.0,101561
101562,101-42-8,101-42-8,CN(C)C(=O)Nc1ccccc1,FENURON,Fenuron,"1,1-dimethyl-3-phenylurea",28842,DTXSID7037551,CN(C)C(=O)Nc1ccccc1,"InChI=1S/C9H12N2O/c1-11(2)9(12)10-8-6-4-3-5-7-8/h3-7H,1-2H3,(H,10,12)",XXOYNJXVWVNOOJ-UHFFFAOYSA-N,?,,133.5,101562
101563,101-53-1,101-53-1,Oc1ccc(Cc2ccccc2)cc1,4-HYDROXYDIPHENYLMETHANE,4-Benzylphenol,4-benzylphenol,28843,DTXSID9047962,Oc1ccc(Cc2ccccc2)cc1,"InChI=1S/C13H12O/c14-13-8-6-12(7-9-13)10-11-4-2-1-3-5-11/h1-9,14H,10H2",HJSPWKGEPDZNLK-UHFFFAOYSA-N,?,,84.0,101563
101565,101-55-3,101-55-3,Brc1ccc(cc1)Oc1ccccc1,4-BROMOPHENYL PHENYL ETHER,p-Bromodiphenyl ether,1-bromo-4-phenoxybenzene,28845,DTXSID8023927,Brc1ccc(cc1)Oc1ccccc1,InChI=1S/C12H9BrO/c13-10-6-8-12(9-7-10)14-11-4-2-1-3-5-11/h1-9H,JDUYPUMQALQRCN-UHFFFAOYSA-N,?,,18.72,101565
101566,101-57-5,101-57-5,OS(=O)(=O)c1ccc(cc1)Nc1ccccc1,"Benzenesulfonic acid, 4-(phenylamino)-","Benzenesulfonic acid, 4-(phenylamino)-",4-(phenylamino)benzenesulfonic acid,28846,DTXSID1059234,OS(=O)(=O)c1ccc(cc1)Nc1ccccc1,"InChI=1S/C12H11NO3S/c14-17(15,16)12-8-6-11(7-9-12)13-10-4-2-1-3-5-10/h1-9,13H,(H,14,15,16)",HYKDWGUFDOYDGV-UHFFFAOYSA-N,?,,206.0,101566
101567,101-59-7,101-59-7,Nc1ccc(cc1)Sc1ccc(cc1)[N+]([O-])=O,"Aniline, p-((p-nitrophenyl)thio)- (6CI,7CI,8CI)",4-[(4-Nitrophenyl)thio]aniline,4-(4-nitrophenyl)sulfanylaniline,28847,DTXSID6073154,Nc1ccc(cc1)Sc1ccc(cc1)[N+]([O-])=O,"InChI=1S/C12H10N2O2S/c13-9-1-5-11(6-2-9)17-12-7-3-10(4-8-12)14(15)16/h1-8H,13H2",ZBPKGHOGUVVDLF-UHFFFAOYSA-N,?,,144.0,101567
101569,101-61-1,101-61-1,CN(C)c1ccc(Cc2ccc(cc2)N(C)C)cc1,BIS(4-DIMETHYLAMINOPHENYL)METHANE,"4,4'-Methylenebis(N,N-dimethylaniline)","4,4'-methanediylbis(N,N-dimethylaniline)",28849,DTXSID5020869,CN(C)c1ccc(Cc2ccc(cc2)N(C)C)cc1,"InChI=1S/C17H22N2/c1-18(2)16-9-5-14(6-10-16)13-15-7-11-17(12-8-15)19(3)4/h5-12H,13H2,1-4H3",JNRLEMMIVRBKJE-UHFFFAOYSA-N,?,,91.5,101569
101570,101-62-2,101-62-2,NC(=N)c1ccc(cc1)Oc1ccc(cc1)C(N)=N,Phenamidine,Phenamidine,4-(4-carbamimidoylphenoxy)benzenecarboximidamide,28850,DTXSID10143619,NC(=N)c1ccc(cc1)Oc1ccc(cc1)C(N)=N,"InChI=1S/C14H14N4O/c15-13(16)9-1-5-11(6-2-9)19-12-7-3-10(4-8-12)14(17)18/h1-8H,(H3,15,16)(H3,17,18)",DMABBVCVVXMJDH-UHFFFAOYSA-N,?,,215.5,101570
101571,101-64-4,101-64-4,COc1ccc(cc1)Nc1ccc(N)cc1,N-(p-Methoxyphenyl)-p-phenylenediamine,"1,4-Benzenediamine, N-(4-methoxyphenyl)-","N-(4-methoxyphenyl)benzene-1,4-diamine",28851,DTXSID1059236,COc1ccc(cc1)Nc1ccc(N)cc1,"InChI=1S/C13H14N2O/c1-16-13-8-6-12(7-9-13)15-11-4-2-10(14)3-5-11/h2-9,15H,14H2,1H3",RBLUJIWKMSZIMK-UHFFFAOYSA-N,?,,102.0,101571
101573,101-71-3,101-71-3,NC(=O)Oc1ccc(Cc2ccccc2)cc1,Diphenane,Diphenan,4-benzylphenyl carbamate,28853,DTXSID4046234,NC(=O)Oc1ccc(Cc2ccccc2)cc1,"InChI=1S/C14H13NO2/c15-14(16)17-13-8-6-12(7-9-13)10-11-4-2-1-3-5-11/h1-9H,10H2,(H2,15,16)",ZBJBRUSGEJORQL-UHFFFAOYSA-N,?,,148.5,101573
101574,101-72-4,101-72-4,CC(C)Nc1ccc(cc1)Nc1ccccc1,4-(ISOPROPYLAMINO) DIPHENYLAMINE,N-Isopropyl-N'-phenyl-p-phenylenediamine,"N-phenyl-N'-(propan-2-yl)benzene-1,4-diamine",28854,DTXSID1025485,CC(C)Nc1ccc(cc1)Nc1ccccc1,"InChI=1S/C15H18N2/c1-12(2)16-14-8-10-15(11-9-14)17-13-6-4-3-5-7-13/h3-12,16-17H,1-2H3",OUBMGJOQLXMSNT-UHFFFAOYSA-N,?,,74.0,101574
101575,101-73-5,101-73-5,CC(C)Oc1ccc(cc1)Nc1ccccc1,4-Isopropoxydiphenylamine,4-Isopropoxydiphenylamine,N-phenyl-4-(propan-2-yloxy)aniline,28855,DTXSID2020763,CC(C)Oc1ccc(cc1)Nc1ccccc1,"InChI=1S/C15H17NO/c1-12(2)17-15-10-8-14(9-11-15)16-13-6-4-3-5-7-13/h3-12,16H,1-2H3",CVVFFUKULYKOJR-UHFFFAOYSA-N,?,,79.0,101575
101577,101-76-8,101-76-8,Clc1ccc(Cc2ccc(Cl)cc2)cc1,"Benzene, 1,1'-methylenebis 4-chloro-",Bis(4-chlorophenyl)methane,1-chloro-4-[(4-chlorophenyl)methyl]benzene,28857,DTXSID6059239,Clc1ccc(Cc2ccc(Cl)cc2)cc1,"InChI=1S/C13H10Cl2/c14-12-5-1-10(2-6-12)9-11-3-7-13(15)8-4-11/h1-8H,9H2",LQGSWLJZAKVBJH-UHFFFAOYSA-N,?,,55.5,101577
101578,101-77-9,101-77-9,Nc1ccc(Cc2ccc(N)cc2)cc1,DI-(P-AMINOPHENYL)METHANE,"4,4'-Methylenedianiline",C13H14N2,28858,DTXSID6022422,Nc1ccc(Cc2ccc(N)cc2)cc1,"InChI=1S/C13H14N2/c14-12-5-1-10(2-6-12)9-11-3-7-13(15)8-4-11/h1-8H,9,14-15H2",YBRVSVVVWCFQMG-UHFFFAOYSA-N,?,,92.5,101578
101579,101-81-5,101-81-5,C(c1ccccc1)c1ccccc1,"BENZENE, 1,1'-METHYLENEBIS-",Diphenylmethane,"1,1'-methanediyldibenzene",28859,DTXSID1041891,C(c1ccccc1)c1ccccc1,"InChI=1S/C13H12/c1-3-7-12(8-4-1)11-13-9-5-2-6-10-13/h1-10H,11H2",CZZYITDELCSZES-UHFFFAOYSA-N,?,,25.2,101579
101581,101-83-7,101-83-7,C1CCCCC1NC1CCCCC1,DICYCLOHEXYLAMINE,Dicyclohexylamine,N-cyclohexylcyclohexanamine,28861,DTXSID6025018,C1CCCCC1NC1CCCCC1,"InChI=1S/C12H23N/c1-3-7-11(8-4-1)13-12-9-5-2-6-10-12/h11-13H,1-10H2",XBPCUCUWBYBCDP-UHFFFAOYSA-N,?,,-0.1,101581
101582,101-84-8,101-84-8,c1ccccc1Oc1ccccc1,DIPHENYL ETHER,Diphenyl oxide,diphenyl ether,28862,DTXSID9021847,c1ccccc1Oc1ccccc1,InChI=1S/C12H10O/c1-3-7-11(8-4-1)13-12-9-5-2-6-10-12/h1-10H,USIUVYZYUHIAEV-UHFFFAOYSA-N,?,,26.8,101582
101583,101-86-0,101-86-0,CCCCCCC(C=O)=Cc1ccccc1,Hexyl cinnamic aldehyde,2-Benzylideneoctanal,2-benzylideneoctanal,28863,DTXSID4026684,CCCCCCC(C=O)=Cc1ccccc1,"InChI=1S/C15H20O/c1-2-3-4-6-11-15(13-16)12-14-9-7-5-8-10-14/h5,7-10,12-13H,2-4,6,11H2,1H3/b15-12-",GUUHFMWKWLOQMM-QINSGFPZSA-N,?,,39.2,101583
101585,101-91-7,101-91-7,CCCC(=O)Nc1ccc(O)cc1,"Butanamide, N-(4-hydroxyphenyl)-","Butanamide, N-(4-hydroxyphenyl)-",N-(4-hydroxyphenyl)butanamide,28865,DTXSID0059241,CCCC(=O)Nc1ccc(O)cc1,"InChI=1S/C10H13NO2/c1-2-3-10(13)11-8-4-6-9(12)7-5-8/h4-7,12H,2-3H2,1H3,(H,11,13)",KESXDDATSRRGAH-UHFFFAOYSA-N,?,,139.5,101585
101586,101-92-8,101-92-8,CC(=O)CC(=O)Nc1ccc(Cl)cc1,p-Chloroacetoacetanilide,4'-Chloroacetoacetanilide,N-(4-chlorophenyl)-3-oxobutanamide,28866,DTXSID3036654,CC(=O)CC(=O)Nc1ccc(Cl)cc1,"InChI=1S/C10H10ClNO2/c1-7(13)6-10(14)12-9-4-2-8(11)3-5-9/h2-5H,6H2,1H3,(H,12,14)",JMRJWEJJUKUBEA-UHFFFAOYSA-N,?,,132.5,101586
101587,101-96-2,101-96-2,CC(CC)Nc1ccc(cc1)NC(C)CC,"N,N'-DI-S-BUTYL-P-PHENYLENEDIAMINE","N,N'-Bis(1-methylpropyl)-1,4-benzenediamine","N,N'-di(butan-2-yl)benzene-1,4-diamine",28867,DTXSID7024956,CC(CC)Nc1ccc(cc1)NC(C)CC,"InChI=1S/C14H24N2/c1-5-11(3)15-13-7-9-14(10-8-13)16-12(4)6-2/h7-12,15-16H,5-6H2,1-4H3",FSWDLYNGJBGFJH-UHFFFAOYSA-N,?,,18.0,101587
101589,101-99-5,101-99-5,CCOC(=O)Nc1ccccc1,N-PHENYL ETHYLCARBAMATE,"Carbamic acid, phenyl-, ethyl ester",Ethyl N-phenylcarbamate,28869,DTXSID0059243,CCOC(=O)Nc1ccccc1,"InChI=1S/C9H11NO2/c1-2-12-9(11)10-8-6-4-3-5-7-8/h3-7H,2H2,1H3,(H,10,11)",LBKPGNUOUPTQKA-UHFFFAOYSA-N,?,,53.0,101589
101590,102-01-2,102-01-2,CC(=O)CC(=O)Nc1ccccc1,ACETOACETANILIDE,Acetoacetanilide,3-oxo-N-phenylbutanamide,28870,DTXSID0024397,CC(=O)CC(=O)Nc1ccccc1,"InChI=1S/C10H11NO2/c1-8(12)7-10(13)11-9-5-3-2-4-6-9/h2-6H,7H2,1H3,(H,11,13)",DYRDKSSFIWVSNM-UHFFFAOYSA-N,?,,86.0,101590
101591,102-02-3,102-02-3,NC(N)=N/C(/N)=N/c1ccccc1,Phenyl Biguanide,Phenyl biguanide,1-(diaminomethylidene)-2-phenylguanidine,28871,DTXSID90144508,NC(N)=NC(N)=Nc1ccccc1,"InChI=1S/C8H11N5/c9-7(10)13-8(11)12-6-4-2-1-3-5-6/h1-5H,(H6,9,10,11,12,13)",CUQCMXFWIMOWRP-UHFFFAOYSA-N,?,,143.0,101591
101593,102-06-7,102-06-7,N=C(Nc1ccccc1)Nc1ccccc1,"N,N'-DIPHENYLGUANIDINE","1,3-Diphenylguanidine","1,3-diphenylguanidine",28873,DTXSID3025178,N=C(Nc1ccccc1)Nc1ccccc1,"InChI=1S/C13H13N3/c14-13(15-11-7-3-1-4-8-11)16-12-9-5-2-6-10-12/h1-10H,(H3,14,15,16)",OWRCNXZUPFZXOS-UHFFFAOYSA-N,?,,150.0,101593
101594,102-07-8,102-07-8,O=C(Nc1ccccc1)Nc1ccccc1,"DIPHENYLUREA, SYM",Diphenylurea,"1,3-diphenylurea",28874,DTXSID2025183,O=C(Nc1ccccc1)Nc1ccccc1,"InChI=1S/C13H12N2O/c16-13(14-11-7-3-1-4-8-11)15-12-9-5-2-6-10-12/h1-10H,(H2,14,15,16)",GWEHVDNNLFDJLR-UHFFFAOYSA-N,?,,239.0,101594
101595,102-08-9,102-08-9,S=C(Nc1ccccc1)Nc1ccccc1,THIOCARBANILIDE,Thiocarbanilide,"1,3-diphenylthiourea",28875,DTXSID4026139,S=C(Nc1ccccc1)Nc1ccccc1,"InChI=1S/C13H12N2S/c16-13(14-11-7-3-1-4-8-11)15-12-9-5-2-6-10-12/h1-10H,(H2,14,15,16)",FCSHMCFRCYZTRQ-UHFFFAOYSA-N,?,,154.5,101595
101597,102-14-7,102-14-7,OC(=O)CCC(=O)Nc1ccccc1,4-OXO-4-(PHENYLAMINO)BUTANOIC ACID,Succinanilic acid,4-Oxo-4-(phenylamino)butanoic acid,28877,DTXSID20144511,OC(=O)CCC(=O)Nc1ccccc1,"InChI=1S/C10H11NO3/c12-9(6-7-10(13)14)11-8-4-2-1-3-5-8/h1-5H,6-7H2,(H,11,12)(H,13,14)",KTFGFGGLCMGYTP-UHFFFAOYSA-N,?,,148.5,101597
101598,102-20-5,102-20-5,O=C(Cc1ccccc1)OCCc1ccccc1,"Benzeneacetic acid, 2-phenylethyl ester",2-Phenylethyl phenylacetate,2-phenylethyl phenylacetate,28878,DTXSID0044494,O=C(Cc1ccccc1)OCCc1ccccc1,"InChI=1S/C16H16O2/c17-16(13-15-9-5-2-6-10-15)18-12-11-14-7-3-1-4-8-14/h1-10H,11-13H2",ZOZIRNMDEZKZHM-UHFFFAOYSA-N,?,,26.5,101598
101599,102-24-9,102-24-9,CO[b]1o[b](o[b](o1)OC)OC,"Boroxin, trimethoxy-",Trimethoxycyclotriboroxane,trimethoxyboroxin,28879,DTXSID6051514,CO[b]1o[b](o[b](o1)OC)OC,InChI=1S/C3H9B3O6/c1-7-4-10-5(8-2)12-6(9-3)11-4/h1-3H3,ZFMOJHVRFMOIGF-UHFFFAOYSA-N,?,,10.0,101599
101601,102-32-9,102-32-9,Oc1cc(CC(O)=O)ccc1O,"3,4-DIHYDROXYPHENYLACETIC ACID","3,4-Dihydroxyphenylacetic acid","2-(3,4-DIHYDROXYPHENYL)ACETIC ACID",28881,DTXSID9074430,Oc1cc(CC(O)=O)ccc1O,"InChI=1S/C8H8O4/c9-6-2-1-5(3-7(6)10)4-8(11)12/h1-3,9-10H,4H2,(H,11,12)",CFFZDZCDUFSOFZ-UHFFFAOYSA-N,?,,128.5,101601
101602,102-36-3,102-36-3,O=C=Nc1cc(Cl)c(Cl)cc1,"1,2-DICHLORO-4-ISOCYANATOBENZENE","3,4-Dichlorophenyl isocyanate","1,2-dichloro-4-isocyanatobenzene",28882,DTXSID9033008,O=C=Nc1cc(Cl)c(Cl)cc1,InChI=1S/C7H3Cl2NO/c8-6-2-1-5(10-4-11)3-7(6)9/h1-3H,MFUVCHZWGSJKEQ-UHFFFAOYSA-N,?,,43.0,101602
101603,102-47-6,102-47-6,ClCc1cc(Cl)c(Cl)cc1,"Benzene, 1,2-dichloro-4-(chloromethyl)-","Benzene, 1,2-dichloro-4-(chloromethyl)-","1,2-DICHLORO-4-(CHLOROMETHYL)BENZENE",28883,DTXSID9059252,ClCc1cc(Cl)c(Cl)cc1,"InChI=1S/C7H5Cl3/c8-4-5-1-2-6(9)7(10)3-5/h1-3H,4H2",YZIFVWOCPGPNHB-UHFFFAOYSA-N,?,,37.5,101603
101606,102-56-7,102-56-7,COc1ccc(cc1N)OC,"2,5-DIMETHOXYANILINE","Benzenamine, 2,5-dimethoxy-","2,5-Dimethoxyaniline",28885,DTXSID4059257,COc1ccc(cc1N)OC,"InChI=1S/C8H11NO2/c1-10-6-3-4-8(11-2)7(9)5-6/h3-5H,9H2,1-2H3",NAZDVUBIEPVUKE-UHFFFAOYSA-N,?,,82.5,101606
101608,102-69-2,102-69-2,CCCN(CCC)CCC,TRIPROPYLAMINE,Tripropylamine,"N,N-dipropylpropan-1-amine",28886,DTXSID9021849,CCCN(CCC)CCC,"InChI=1S/C9H21N/c1-4-7-10(8-5-2)9-6-3/h4-9H2,1-3H3",YFTHZRPMJXBUME-UHFFFAOYSA-N,?,,-93.5,101608
101612,102-77-2,102-77-2,C1COCCN1Sc1[n]c2ccccc2[s]1,"Morpholine, 4-(2-benzothiazolylthio)-",N-Oxydiethylenebenzothiazole-2-sulfenamide,"2-(morpholin-4-ylsulfanyl)-1,3-benzothiazole",28888,DTXSID0021096,C1COCCN1Sc1[n]c2ccccc2[s]1,"InChI=1S/C11H12N2OS2/c1-2-4-10-9(3-1)12-11(15-10)16-13-5-7-14-8-6-13/h1-4H,5-8H2",MHKLKWCYGIBEQF-UHFFFAOYSA-N,?,,85.0,101612
101613,102-81-8,102-81-8,CCCCN(CCO)CCCC,2-Dibutylaminoethanol,2-(Dibutylamino)ethanol,2-(dibutylamino)ethanol,28889,DTXSID2024953,CCCCN(CCO)CCCC,"InChI=1S/C10H23NO/c1-3-5-7-11(9-10-12)8-6-4-2/h12H,3-10H2,1-2H3",IWSZDQRGNFLMJS-UHFFFAOYSA-N,?,,-75.0,101613
101615,102-85-2,102-85-2,CCCCOP(OCCCC)OCCCC,"Phosphorous acid, tributyl ester",Tributyl phosphite,tributyl phosphite,28891,DTXSID7051474,CCCCOP(OCCCC)OCCCC,"InChI=1S/C12H27O3P/c1-4-7-10-13-16(14-11-8-5-2)15-12-9-6-3/h4-12H2,1-3H3",XTTGYFREQJCEML-UHFFFAOYSA-N,?,,-80.0,101615
101616,102-92-1,102-92-1,O=C(Cl)C=Cc1ccccc1,"2-Propenoyl chloride, 3-phenyl-","2-Propenoyl chloride, 3-phenyl-",,28892,DTXSID3059264,O=C(Cl)C=Cc1ccccc1,InChI=1S/C9H7ClO/c10-9(11)7-6-8-4-2-1-3-5-8/h1-7H/b7-6+,WOGITNXCNOTRLK-VOTSOKGWSA-N,?,,36.0,101616
101618,103-01-5,103-01-5,OC(=O)CNc1ccccc1,N-PHENYLGLYCINE,N-Phenylglycine,N-phenylglycine,28893,DTXSID2047016,OC(=O)CNc1ccccc1,"InChI=1S/C8H9NO2/c10-8(11)6-9-7-4-2-1-3-5-7/h1-5,9H,6H2,(H,10,11)",NPKSPKHJBVJUKB-UHFFFAOYSA-N,?,,127.5,101618
101620,103-03-7,103-03-7,NC(=O)NNc1ccccc1,"HYDRAZINECARBOXAMIDE, 2-PHENYL-",Phenicarbazide,2-phenylhydrazinecarboxamide,28895,DTXSID9020245,NC(=O)NNc1ccccc1,"InChI=1S/C7H9N3O/c8-7(11)10-9-6-4-2-1-3-5-6/h1-5,9H,(H3,8,10,11)",AVKHCKXGKPAGEI-UHFFFAOYSA-N,?,,172.0,101620
101621,103-04-8,103-04-8,OC(=O)CSc1ccccc1,S-PHENYLMERCAPTOACETIC ACID,(Phenylthio)acetic acid,2-phenylsulfanylacetic acid,28896,DTXSID4074431,OC(=O)CSc1ccccc1,"InChI=1S/C8H8O2S/c9-8(10)6-11-7-4-2-1-3-5-7/h1-5H,6H2,(H,9,10)",MOTOSAGBNXXRRE-UHFFFAOYSA-N,?,,65.0,101621
101622,103-05-9,103-05-9,CC(C)(O)CCc1ccccc1,"Benzenepropanol, .alpha.,.alpha.-dimethyl-",2-Methyl-4-phenylbutan-2-ol,2-methyl-4-phenylbutan-2-ol,28897,DTXSID3021851,CC(C)(O)CCc1ccccc1,"InChI=1S/C11H16O/c1-11(2,12)9-8-10-6-4-3-5-7-10/h3-7,12H,8-9H2,1-2H3",YXVSKJDFNJFXAJ-UHFFFAOYSA-N,?,,24.5,101622
101624,103-11-7,103-11-7,CCCCC(COC(=O)C=C)CC,2-ETHYLHEXYL ACRYLATE,2-Ethylhexyl acrylate,2-ethylhexyl prop-2-enoate,28899,DTXSID9025297,CCCCC(COC(=O)C=C)CC,"InChI=1S/C11H20O2/c1-4-7-8-10(5-2)9-13-11(12)6-3/h6,10H,3-5,7-9H2,1-2H3",GOXQRTZXKQZDDN-UHFFFAOYSA-N,?,,-90.0,101624
101625,103-12-8,103-12-8,Nc1cc(N)c(cc1)/N=N/c1ccc(cc1)S(N)(=O)=O,Sulfamidochrysoidine,Sulfamidochrysoidine,"4-(2,4-diaminophenyl)diazenylbenzenesulfonamide",28900,DTXSID60145608,Nc1cc(N)c(cc1)N=Nc1ccc(cc1)S(N)(=O)=O,"InChI=1S/C12H13N5O2S/c13-8-1-6-12(11(14)7-8)17-16-9-2-4-10(5-3-9)20(15,18)19/h1-7H,13-14H2,(H2,15,18,19)/b17-16+",ABBQGOCHXSPKHJ-WUKNDPDISA-N,?,,249.5,101625
101626,103-14-0,103-14-0,Oc1ccc(cc1)NCc1ccccc1,"Phenol, 4-((phenylmethyl)amino)-","Phenol, 4-[(phenylmethyl)amino]-",4-(phenylmethylamino)phenol,28901,DTXSID8059269,Oc1ccc(cc1)NCc1ccccc1,"InChI=1S/C13H13NO/c15-13-8-6-12(7-9-13)14-10-11-4-2-1-3-5-11/h1-9,14-15H,10H2",SRYYOKKLTBRLHT-UHFFFAOYSA-N,?,,88.0,101626
101628,103-17-3,103-17-3,Clc1ccc(CSc2ccc(Cl)cc2)cc1,CHLORBENSIDE,Chlorbenside,4-chlorobenzyl 4-chlorophenyl sulfide,28903,DTXSID1041766,Clc1ccc(CSc2ccc(Cl)cc2)cc1,"InChI=1S/C13H10Cl2S/c14-11-3-1-10(2-4-11)9-16-13-7-5-12(15)6-8-13/h1-8H,9H2",ZHLKXBJTJHRTTE-UHFFFAOYSA-N,?,,75.0,101628
101629,103-19-5,103-19-5,Cc1ccc(cc1)SSc1ccc(C)cc1,"Disulfide, bis(4-methylphenyl)",bis(4-Methylphenyl) disulfide,bis(4-methylphenyl) disulfide,28904,DTXSID8021852,Cc1ccc(cc1)SSc1ccc(C)cc1,"InChI=1S/C14H14S2/c1-11-3-7-13(8-4-11)15-16-14-9-5-12(2)6-10-14/h3-10H,1-2H3",TZOVOULUMXXLOJ-UHFFFAOYSA-N,?,,47.5,101629
101630,103-23-1,103-23-1,CCCCC(COC(=O)CCCCC(=O)OCC(CCCC)CC)CC,DI-2-ETHYLHEXYL ADIPATE,Di(2-ethylhexyl) adipate,bis(2-ethylhexyl) hexanedioate,28905,DTXSID0020606,CCCCC(COC(=O)CCCCC(=O)OCC(CCCC)CC)CC,"InChI=1S/C22H42O4/c1-5-9-13-19(7-3)17-25-21(23)15-11-12-16-22(24)26-18-20(8-4)14-10-6-2/h19-20H,5-18H2,1-4H3",SAOKZLXYCUGLFA-UHFFFAOYSA-N,?,,-67.8,101630
101632,103-26-4,103-26-4,COC(=O)C=Cc1ccccc1,"CINNAMIC ACID, METHYL ESTER",Methyl cinnamate,methyl 3-phenylprop-2-enoate,28907,DTXSID6042151,COC(=O)C=Cc1ccccc1,"InChI=1S/C10H10O2/c1-12-10(11)8-7-9-5-3-2-4-6-9/h2-8H,1H3/b8-7+",CCRCUPLGCSFEDV-BQYQJAHWSA-N,?,,36.0,101632
101633,103-29-7,103-29-7,C(Cc1ccccc1)c1ccccc1,BIBENZYL,Bibenzyl,"1,1'-ethane-1,2-diyldibenzene",28908,DTXSID8041668,C(Cc1ccccc1)c1ccccc1,"InChI=1S/C14H14/c1-3-7-13(8-4-1)11-12-14-9-5-2-6-10-14/h1-10H,11-12H2",QWUWMCYKGHVNAV-UHFFFAOYSA-N,?,,52.5,101633
101635,103-32-2,103-32-2,C(Nc1ccccc1)c1ccccc1,N-BENZYLANILINE,"Benzenemethanamine, N-phenyl-",N-(phenylmethyl)aniline,28909,DTXSID7059272,C(Nc1ccccc1)c1ccccc1,"InChI=1S/C13H13N/c1-3-7-12(8-4-1)11-14-13-9-5-2-6-10-13/h1-10,14H,11H2",GTWJETSWSUWSEJ-UHFFFAOYSA-N,?,,37.5,101635
101637,103-34-4,103-34-4,C1COCCN1SSN1CCOCC1,"Morpholine, 4,4'-dithiobis-","4,4'-Dithiodimorpholine","4,4'-disulfanediyldimorpholine",28911,DTXSID8026698,C1COCCN1SSN1CCOCC1,InChI=1S/C8H16N2O2S2/c1-5-11-6-2-9(1)13-14-10-3-7-12-8-4-10/h1-8H2,HLBZWYXLQJQBKU-UHFFFAOYSA-N,?,,124.5,101637
101638,103-36-6,103-36-6,CCOC(=O)C=Cc1ccccc1,"CINNAMIC ACID, ETHYL ESTER",Ethyl cinnamate,ethyl 3-phenylprop-2-enoate,28912,DTXSID9022520,CCOC(=O)C=Cc1ccccc1,"InChI=1S/C11H12O2/c1-2-13-11(12)9-8-10-6-4-3-5-7-10/h3-9H,2H2,1H3/b9-8+",KBEBGUQPQBELIU-CMDGGOBGSA-N,?,,7.0,101638
101639,103-41-3,103-41-3,O=C(C=Cc1ccccc1)OCc1ccccc1,BENZYL CINNAMATE,Benzyl cinnamate,benzyl 3-phenylprop-2-enoate,28913,DTXSID3041663,O=C(C=Cc1ccccc1)OCc1ccccc1,"InChI=1S/C16H14O2/c17-16(12-11-14-7-3-1-4-8-14)18-13-15-9-5-2-6-10-15/h1-12H,13H2/b12-11+",NGHOLYJTSCBCGC-VAWYXSNFSA-N,?,,39.0,101639
101641,103-44-6,103-44-6,CCCCC(COC=C)CC,Vinyl 2-ethylhexyl ether,,,28915,DTXSID20870444,CCCCC(COC=C)CC,"InChI=1S/C10H20O/c1-4-7-8-10(5-2)9-11-6-3/h6,10H,3-5,7-9H2,1-2H3",DSSAWHFZNWVJEC-UHFFFAOYSA-N,?,,-100.0,101641
101642,103-45-7,103-45-7,CC(=O)OCCc1ccccc1,B-PHENYLETHYL ACETATE,2-Phenylethyl acetate,2-phenylethyl acetate,28916,DTXSID7044506,CC(=O)OCCc1ccccc1,"InChI=1S/C10H12O2/c1-9(11)12-8-7-10-5-3-2-4-6-10/h2-6H,7-8H2,1H3",MDHYEMXUFSJLGV-UHFFFAOYSA-N,?,,-31.1,101642
101643,103-46-8,103-46-8,OC(=O)CSCc1ccccc1,S-BENZYLMERCAPTOACETIC ACID,"Acetic acid, [(phenylmethyl)thio]-",2-(phenylmethylsulfanyl)acetic acid,28917,DTXSID2059273,OC(=O)CSCc1ccccc1,"InChI=1S/C9H10O2S/c10-9(11)7-12-6-8-4-2-1-3-5-8/h1-5H,6-7H2,(H,10,11)",AWLVTQRRKPBQEQ-UHFFFAOYSA-N,?,,61.0,101643
101645,103-49-1,103-49-1,C(NCc1ccccc1)c1ccccc1,DIBENZYL AMINE,Dibenzylamine,N-benzyl-1-phenylmethanamine,28919,DTXSID6044355,C(NCc1ccccc1)c1ccccc1,"InChI=1S/C14H15N/c1-3-7-13(8-4-1)11-15-12-14-9-5-2-6-10-14/h1-10,15H,11-12H2",BWLUMTFWVZZZND-UHFFFAOYSA-N,?,,-26.0,101645
101646,103-50-4,103-50-4,C(OCc1ccccc1)c1ccccc1,DIBENZYL ETHER,Dibenzyl ether,C14H14O,28920,DTXSID5025819,C(OCc1ccccc1)c1ccccc1,"InChI=1S/C14H14O/c1-3-7-13(8-4-1)11-15-12-14-9-5-2-6-10-14/h1-10H,11-12H2",MHDVGSVTJDSBDK-UHFFFAOYSA-N,?,,3.6,101646
101647,103-63-9,103-63-9,BrCCc1ccccc1,(2-BROMOETHYL)BENZENE,Phenethyl bromide,(2-bromoethyl)benzene,28921,DTXSID1033876,BrCCc1ccccc1,"InChI=1S/C8H9Br/c9-7-6-8-4-2-1-3-5-8/h1-5H,6-7H2",WMPPDTMATNBGJN-UHFFFAOYSA-N,?,,-65.7,101647
101649,103-65-1,103-65-1,CCCc1ccccc1,N-PROPYLBENZENE,Propylbenzene,propylbenzene,28923,DTXSID3042219,CCCc1ccccc1,"InChI=1S/C9H12/c1-2-6-9-7-4-3-5-8-9/h3-5,7-8H,2,6H2,1H3",ODLMAHJVESYWTB-UHFFFAOYSA-N,?,,-99.5,101649
101650,103-69-5,103-69-5,CCNc1ccccc1,N-ETHYLANILINE,N-Ethylaniline,N-ethylaniline,28924,DTXSID1025271,CCNc1ccccc1,"InChI=1S/C8H11N/c1-2-9-8-6-4-3-5-7-8/h3-7,9H,2H2,1H3",OJGMBLNIHDZDGS-UHFFFAOYSA-N,?,,-63.5,101650
101651,103-70-8,103-70-8,O=CNc1ccccc1,FORMANILIDE,Formanilide,N-phenylformamide,28925,DTXSID3025338,O=CNc1ccccc1,"InChI=1S/C7H7NO/c9-6-8-7-4-2-1-3-5-7/h1-6H,(H,8,9)",DYDNPESBYVVLBO-UHFFFAOYSA-N,?,,46.0,101651
101654,103-74-2,103-74-2,OCCc1cccc[n]1,2-PYRIDINEETHANOL,2-(Pyridin-2-yl)ethanol,2-(pyridin-2-yl)ethanol,28927,DTXSID2044767,OCCc1cccc[n]1,"InChI=1S/C7H9NO/c9-6-4-7-3-1-2-5-8-7/h1-3,5,9H,4,6H2",BXGYBSJAZFGIPX-UHFFFAOYSA-N,?,,-7.8,101654
101655,103-79-7,103-79-7,CC(=O)Cc1ccccc1,1-PHENYL-2-PROPANONE,"2-Propanone, 1-phenyl-",1-phenylpropan-2-one,28928,DTXSID1059280,CC(=O)Cc1ccccc1,"InChI=1S/C9H10O/c1-8(10)7-9-5-3-2-4-6-9/h2-6H,7H2,1H3",QCCDLTOVEPVEJK-UHFFFAOYSA-N,?,,-15.0,101655