ChemID,source_casrn,CAS,SMILES,NAME,preferred_name,iupac,MPID,dsstox_substance_id,Canonical_QSARr,InChI_Code_QSARr,InChI Key_QSARr,Salt_Solvent,Salt_Solvent_ID,MP,ID
100949,87-31-0,87-31-0,[O-][N+](=O)c1cc(cc2[n][n]oc21)[N+]([O-])=O,DIAZODINITROPHENOL,"5,7-Dinitro-1,2,3-benzoxadiazole","5,7-dinitro-1,2,3-benzoxadiazole",28259,DTXSID6075279,[O-][N+](=O)c1cc(cc2[n][n]oc21)[N+]([O-])=O,InChI=1S/C6H2N4O5/c11-9(12)3-1-4-6(15-8-7-4)5(2-3)10(13)14/h1-2H,IFYCOVMLDMKOHK-UHFFFAOYSA-N,?,,158.0,100949
100951,87-40-1,87-40-1,COc1c(Cl)cc(Cl)cc1Cl,"2,4,6-TRICHLOROANISOLE","Benzene, 1,3,5-trichloro-2-methoxy-","1,3,5-Trichloro-2-methoxybenzene",28261,DTXSID9073886,COc1c(Cl)cc(Cl)cc1Cl,"InChI=1S/C7H5Cl3O/c1-11-7-5(9)2-4(8)3-6(7)10/h2-3H,1H3",WCVOGSZTONGSQY-UHFFFAOYSA-N,?,,61.5,100951
100952,87-41-2,87-41-2,O=C1OCc2ccccc21,PHTHALIDE,Phthalide,2-benzofuran-1(3H)-one,28262,DTXSID0052594,O=C1OCc2ccccc21,"InChI=1S/C8H6O2/c9-8-7-4-2-1-3-6(7)5-10-8/h1-4H,5H2",WNZQDUSMALZDQF-UHFFFAOYSA-N,?,,75.0,100952
100953,87-47-8,87-47-8,CN(C)C(=O)Oc1cc(C)[n][n]1-c1ccccc1,PYROLAN,Pyrolan,3-methyl-1-phenyl-1H-pyrazol-5-yl dimethylcarbamate,28263,DTXSID6042361,CN(C)C(=O)Oc1cc(C)[n][n]1-c1ccccc1,"InChI=1S/C13H15N3O2/c1-10-9-12(18-13(17)15(2)3)16(14-10)11-7-5-4-6-8-11/h4-9H,1-3H3",GEDIWDLJKRKBFT-UHFFFAOYSA-N,?,,50.0,100953
100955,87-51-4,87-51-4,OC(=O)Cc1c[nH]c2ccccc21,INDOLE-3-ACETIC ACID,Indole-3-acetic acid,1H-indol-3-ylacetic acid,28265,DTXSID5020738,OC(=O)Cc1c[nH]c2ccccc21,"InChI=1S/C10H9NO2/c12-10(13)5-7-6-11-9-4-2-1-3-8(7)9/h1-4,6,11H,5H2,(H,12,13)",SEOVTRFCIGRIMH-UHFFFAOYSA-N,?,,168.5,100955
100956,87-52-5,87-52-5,CN(C)Cc1c[nH]c2ccccc21,"1H-Indole-3-methanamine, N,N-dimethyl-","1H-Indole-3-methanamine, N,N-dimethyl-","1-(1H-indol-3-yl)-N,N-dimethylmethanamine",28266,DTXSID3058955,CN(C)Cc1c[nH]c2ccccc21,"InChI=1S/C11H14N2/c1-13(2)8-9-7-12-11-6-4-3-5-10(9)11/h3-7,12H,8H2,1-2H3",OCDGBSUVYYVKQZ-UHFFFAOYSA-N,?,,138.5,100956
100957,87-56-9,87-56-9,OC(=O)/C(/Cl)=C(/Cl)\C=O,Mucochloric Acid,"(2Z)-2,3-Dichloro-4-oxobut-2-enoic acid","(2Z)-2,3-dichloro-4-oxobut-2-enoic acid",28267,DTXSID7020423,OC(=O)C(Cl)=C(Cl)C=O,"InChI=1S/C4H2Cl2O3/c5-2(1-7)3(6)4(8)9/h1H,(H,8,9)/b3-2+",LUMLZKVIXLWTCI-NSCUHMNNSA-N,?,,127.0,100957
100959,87-61-6,87-61-6,Clc1c(Cl)cccc1Cl,"1,2,3-TRICHLOROBENZENE","1,2,3-Trichlorobenzene",C6H3Cl3,28269,DTXSID8026193,Clc1c(Cl)cccc1Cl,InChI=1S/C6H3Cl3/c7-4-2-1-3-5(8)6(4)9/h1-3H,RELMFMZEBKVZJC-UHFFFAOYSA-N,?,,53.5,100959
100960,87-62-7,87-62-7,Cc1cccc(C)c1N,"2,6-DIMETHYLANILINE","2,6-Dimethylaniline","2,6-dimethylaniline",28270,DTXSID8026307,Cc1cccc(C)c1N,"InChI=1S/C8H11N/c1-6-4-3-5-7(2)8(6)9/h3-5H,9H2,1-2H3",UFFBMTHBGFGIHF-UHFFFAOYSA-N,?,,11.2,100960
100961,87-63-8,87-63-8,Cc1cccc(Cl)c1N,"Benzenamine, 2-chloro-6-methyl-",6-Chloro-2-methylaniline,2-Chloro-6-methylaniline,28271,DTXSID8058956,Cc1cccc(Cl)c1N,"InChI=1S/C7H8ClN/c1-5-3-2-4-6(8)7(5)9/h2-4H,9H2,1H3",WFNLHDJJZSJARK-UHFFFAOYSA-N,?,,2.0,100961
100963,87-66-1,87-66-1,Oc1c(O)cccc1O,"1,2,3-TRIHYDROXYBENZENE",Pyrogallol,"benzene-1,2,3-triol",28273,DTXSID6025983,Oc1c(O)cccc1O,"InChI=1S/C6H6O3/c7-4-2-1-3-5(8)6(4)9/h1-3,7-9H",WQGWDDDVZFFDIG-UHFFFAOYSA-N,?,,133.0,100963
100964,87-68-3,87-68-3,ClC(Cl)=C(Cl)C(Cl)=C(Cl)Cl,HEXACHLOROBUTADIENE,"Hexachloro-1,3-butadiene","1,1,2,3,4,4-hexachlorobuta-1,3-diene",28274,DTXSID7020683,ClC(Cl)=C(Cl)C(Cl)=C(Cl)Cl,InChI=1S/C4Cl6/c5-1(3(7)8)2(6)4(9)10,RWNKSTSCBHKHTB-UHFFFAOYSA-N,?,,-21.0,100964
100965,87-69-4|133-37-9|147-71-7|147-73-9,87-69-4|133-37-9|147-71-7,OC(=O)[C@H](O)[C@@H](O)C(O)=O,"TARTARIC ACID, DL-TARTARIC ACID, D-TARTARIC ACID, meso-TARTARIC ACID",L-Tartaric acid,"(2R,3R)-2,3-dihydroxybutanedioic acid",28275|29797|29946|29947,DTXSID8023632|DTXSID5046986|DTXSID4043775,OC(=O)C(O)C(O)C(O)=O,"InChI=1S/C4H6O6/c5-1(3(7)8)2(6)4(9)10/h1-2,5-6H,(H,7,8)(H,9,10)",FEWJPZIEWOKRBE-UHFFFAOYSA-N,?,,173.625,100965
100967,87-73-0,526-99-8,OC(=O)[C@@H](O)[C@H](O)[C@H](O)[C@@H](O)C(O)=O,Glucaric acid,Mucic acid,D-galactaric acid,28277,DTXSID7048740,OC(=O)C(O)C(O)C(O)C(O)C(O)=O,"InChI=1S/C6H10O8/c7-1(3(9)5(11)12)2(8)4(10)6(13)14/h1-4,7-10H,(H,11,12)(H,13,14)",DSLZVSRJTYRBFB-UHFFFAOYSA-N,?,,125.5,100967
100968,87-74-1,87-74-1,OCC(O)[C@@H](O)[C@@H](O)[C@H](O)[C@@H](O)C(O)=O,Glucoheptonic Acid,D-Gluco-heptonic acid,"(2R,3S,4R,5R)-2,3,4,5,6,7-hexahydroxyheptanoic acid",28278,DTXSID3048077,OCC(O)C(O)C(O)C(O)C(O)C(O)=O,"InChI=1S/C7H14O8/c8-1-2(9)3(10)4(11)5(12)6(13)7(14)15/h2-6,8-13H,1H2,(H,14,15)",KWMLJOLKUYYJFJ-UHFFFAOYSA-N,?,,146.5,100968
100970,87-79-6,87-79-6,O[C@@H](CO)[C@@H](O)[C@H](O)C(=O)CO,L-Sorbose,L-(-)-Sorbose,L-sorbose,28279,DTXSID1048704,OC(CO)C(O)C(O)C(=O)CO,"InChI=1S/C6H12O6/c7-1-3(9)5(11)6(12)4(10)2-8/h3,5-9,11-12H,1-2H2",BJHIKXHVCXFQLS-UHFFFAOYSA-N,?,,165.0,100970
100972,87-82-1,87-82-1,Brc1c(Br)c(Br)c(Br)c(Br)c1Br,HEXABROMOBENZENE,Hexabromobenzene,hexabromobenzene,28281,DTXSID1024128,Brc1c(Br)c(Br)c(Br)c(Br)c1Br,InChI=1S/C6Br6/c7-1-2(8)4(10)6(12)5(11)3(1)9,CAYGQBVSOZLICD-UHFFFAOYSA-N,?,,326.0,100972
100973,87-83-2,87-83-2,Cc1c(Br)c(Br)c(Br)c(Br)c1Br,PENTABROMOTOLUENE,Pentabromotoluene,"1,2,3,4,5-pentabromo-6-methylbenzene",28282,DTXSID3025833,Cc1c(Br)c(Br)c(Br)c(Br)c1Br,InChI=1S/C7H3Br5/c1-2-3(8)5(10)7(12)6(11)4(2)9/h1H3,OZHJEQVYCBTHJT-UHFFFAOYSA-N,?,,288.0,100973
100974,87-85-4,87-85-4,Cc1c(C)c(C)c(C)c(C)c1C,HEXAMETHYLBENZENE,Hexamethylbenzene,"1,2,3,4,5,6-hexamethylbenzene",28283,DTXSID3058957,Cc1c(C)c(C)c(C)c(C)c1C,InChI=1S/C12H18/c1-7-8(2)10(4)12(6)11(5)9(7)3/h1-6H3,YUWFEBAXEOLKSG-UHFFFAOYSA-N,?,,166.5,100974
100976,87-88-7,87-88-7,OC1=C(Cl)C(=O)C(O)=C(Cl)C1=O,Chloranilic acid,"2,5-Cyclohexadiene-1,4-dione, 2,5-dichloro-3,6-dihydroxy-","2,5-dichloro-3,6-dihydroxycyclohexa-2,5-diene-1,4-dione",28285,DTXSID3058959,OC1=C(Cl)C(=O)C(O)=C(Cl)C1=O,"InChI=1S/C6H2Cl2O4/c7-1-3(9)5(11)2(8)6(12)4(1)10/h9,12H",IPPWILKGXFOXHO-UHFFFAOYSA-N,?,,283.5,100976
100977,87-89-8|643-12-9,87-89-8|6917-35-7,"O[C@@H]1[C@H](O)[C@@H](O)[C@H](O)[C@@H](O)[C@@H]1O |&1:1,2,4,6,8,10|","INOSITOL, D-Inositol",myo-Inositol,"cyclohexane-1,2,3,4,5,6-hexol",28286|32174,DTXSID7023146|DTXSID30110000,OC1C(O)C(O)C(O)C(O)C1O,InChI=1S/C6H12O6/c7-1-2(8)4(10)6(12)5(11)3(1)9/h1-12H,CDAISMWEOUEBRE-UHFFFAOYSA-N,?,,237.25,100977
100978,87-91-2,87-91-2,CCOC(=O)[C@H](O)[C@@H](O)C(=O)OCC,"TARTARIC ACID, DIETHYL ESTER",Diethyl L-tartrate,"diethyl (2R,3R)-2,3-dihydroxysuccinate",28287,DTXSID5052597,CCOC(=O)C(O)C(O)C(=O)OCC,"InChI=1S/C8H14O6/c1-3-13-7(11)5(9)6(10)8(12)14-4-2/h5-6,9-10H,3-4H2,1-2H3",YSAVZVORKRDODB-UHFFFAOYSA-N,?,,17.0,100978
100981,88-04-0,88-04-0,Cc1cc(O)cc(C)c1Cl,"4-CHLORO-3,5-DIMETHYL PHENOL","4-Chloro-3,5-dimethylphenol","4-chloro-3,5-dimethylphenol",28289,DTXSID0032316,Cc1cc(O)cc(C)c1Cl,"InChI=1S/C8H9ClO/c1-5-3-7(10)4-6(2)8(5)9/h3-4,10H,1-2H3",OSDLLIBGSJNGJE-UHFFFAOYSA-N,?,,115.0,100981
100982,88-05-1,88-05-1,Cc1cc(C)c(N)c(C)c1,"Benzenamine, 2,4,6-trimethyl-","2,4,6-Trimethylaniline","2,4,6-trimethylaniline",28290,DTXSID5043847,Cc1cc(C)c(N)c(C)c1,"InChI=1S/C9H13N/c1-6-4-7(2)9(10)8(3)5-6/h4-5H,10H2,1-3H3",KWVPRPSXBZNOHS-UHFFFAOYSA-N,?,,-5.0,100982
100983,88-06-2,88-06-2,Oc1c(Cl)cc(Cl)cc1Cl,"2,4,6-TRICHLOROPHENOL","2,4,6-Trichlorophenol",C6H3Cl3O,28291,DTXSID5021386,Oc1c(Cl)cc(Cl)cc1Cl,"InChI=1S/C6H3Cl3O/c7-3-1-4(8)6(10)5(9)2-3/h1-2,10H",LINPIYWFGCPVIE-UHFFFAOYSA-N,?,,69.0,100983
100985,88-10-8,88-10-8,CCN(CC)C(=O)Cl,"Carbamic chloride, diethyl-",Diethylcarbamoyl chloride,diethylcarbamic chloride,28293,DTXSID0052598,CCN(CC)C(=O)Cl,"InChI=1S/C5H10ClNO/c1-3-7(4-2)5(6)8/h3-4H2,1-2H3",OFCCYDUUBNUJIB-UHFFFAOYSA-N,?,,-32.0,100985
100987,88-13-1,88-13-1,OC(=O)c1cc[s]c1,THIOPHENE-3-CARBOXYLIC ACID,3-Thiophenecarboxylic acid,thiophene-3-carboxylic acid,28294,DTXSID40236745,OC(=O)c1cc[s]c1,"InChI=1S/C5H4O2S/c6-5(7)4-1-2-8-3-4/h1-3H,(H,6,7)",YNVOMSDITJMNET-UHFFFAOYSA-N,?,,138.0,100987
100989,88-15-3,88-15-3,CC(=O)c1ccc[s]1,2-ACETYLTHIOPHENE,"Ethanone, 1-(2-thienyl)-",1-thiophen-2-ylethanone,28296,DTXSID2058960,CC(=O)c1ccc[s]1,"InChI=1S/C6H6OS/c1-5(7)6-3-2-4-8-6/h2-4H,1H3",WYJOVVXUZNRJQY-UHFFFAOYSA-N,?,,10.5,100989
100990,88-16-4,88-16-4,FC(F)(F)c1ccccc1Cl,CHLORO(TRIFLUOROMETHYL)BENZENE,2-Chlorobenzotrifluoride,1-chloro-2-(trifluoromethyl)benzene,28297,DTXSID9024774,FC(F)(F)c1ccccc1Cl,"InChI=1S/C7H4ClF3/c8-6-4-2-1-3-5(6)7(9,10)11/h1-4H",DGRVQOKCSKDWIH-UHFFFAOYSA-N,?,,-6.0,100990
100991,88-17-5,88-17-5,Nc1ccccc1C(F)(F)F,"BENZENAMINE, 2-(TRIFLUOROMETHYL)-",o-(Trifluoromethyl)aniline,2-(Trifluoromethyl)aniline,28298,DTXSID7058961,Nc1ccccc1C(F)(F)F,"InChI=1S/C7H6F3N/c8-7(9,10)5-3-1-2-4-6(5)11/h1-4H,11H2",VBLXCTYLWZJBKA-UHFFFAOYSA-N,?,,35.5,100991
100993,88-19-7,88-19-7,Cc1ccccc1S(N)(=O)=O,O-METHYLBENZENESULFONAMIDE,o-Toluenesulfonamide,2-methylbenzenesulfonamide,28300,DTXSID7021362,Cc1ccccc1S(N)(=O)=O,"InChI=1S/C7H9NO2S/c1-6-4-2-3-5-7(6)11(8,9)10/h2-5H,1H3,(H2,8,9,10)",YCMLQMDWSXFTIF-UHFFFAOYSA-N,?,,156.3,100993
100995,88-24-4,88-24-4,CC(C)(C)c1cc(CC)cc(Cc2cc(CC)cc(c2O)C(C)(C)C)c1O,"2,2'-Methylenebis(ethyl-6-tert-butylphenol)","2,2'-Methylenebis(ethyl-6-tert-butylphenol)","2,2'-methanediylbis(6-tert-butyl-4-ethylphenol)",28301,DTXSID7038864,CC(C)(C)c1cc(CC)cc(Cc2cc(CC)cc(c2O)C(C)(C)C)c1O,"InChI=1S/C25H36O2/c1-9-16-11-18(22(26)20(13-16)24(3,4)5)15-19-12-17(10-2)14-21(23(19)27)25(6,7)8/h11-14,26-27H,9-10,15H2,1-8H3",GPNYZBKIGXGYNU-UHFFFAOYSA-N,?,,120.5,100995
100996,88-26-6,88-26-6,CC(C)(C)c1cc(CO)cc(c1O)C(C)(C)C,"2,6-Di-tert-butyl-4-hydroxymethylphenol",di-tert-Butyl-4-hydroxymethyl phenol,"2,6-di-tert-butyl-4-(hydroxymethyl)phenol",28302,DTXSID7020211,CC(C)(C)c1cc(CO)cc(c1O)C(C)(C)C,"InChI=1S/C15H24O2/c1-14(2,3)11-7-10(9-16)8-12(13(11)17)15(4,5)6/h7-8,16-17H,9H2,1-6H3",HNURKXXMYARGAY-UHFFFAOYSA-N,?,,140.0,100996
100998,88-29-9,88-29-9,CC(=O)c1cc2c(cc1CC)C(C)(C)CCC2(C)C,Versalide,Acetylethyltetramethyltetralin,"1-(3-ethyl-5,5,8,8-tetramethyl-5,6,7,8-tetrahydronaphthalen-2-yl)ethanone",28304,DTXSID3041582,CC(=O)c1cc2c(cc1CC)C(C)(C)CCC2(C)C,"InChI=1S/C18H26O/c1-7-13-10-15-16(11-14(13)12(2)19)18(5,6)9-8-17(15,3)4/h10-11H,7-9H2,1-6H3",KSEZPRJUTHMFGZ-UHFFFAOYSA-N,?,,46.5,100998
100999,88-30-2,88-30-2,[O-][N+](=O)c1ccc(O)cc1C(F)(F)F,3-TRIFLUOROMETHYL-4-NITROPHENOL,3-Trifluoromethyl-4-nitrophenol,4-nitro-3-(trifluoromethyl)phenol,28305,DTXSID7021788,[O-][N+](=O)c1ccc(O)cc1C(F)(F)F,"InChI=1S/C7H4F3NO3/c8-7(9,10)5-3-4(12)1-2-6(5)11(13)14/h1-3,12H",ZEFMBAFMCSYJOO-UHFFFAOYSA-N,?,,76.0,100999
101000,88-41-5,88-41-5,CC(=O)OC1CCCCC1C(C)(C)C,2-t-Butylcyclohexyl acetate,2-tert-Butylcyclohexyl acetate,2-tert-butylcyclohexyl acetate,28306,DTXSID3036105,CC(=O)OC1CCCCC1C(C)(C)C,"InChI=1S/C12H22O2/c1-9(13)14-11-8-6-5-7-10(11)12(2,3)4/h10-11H,5-8H2,1-4H3",FINOAUDUYKVGDS-UHFFFAOYSA-N,?,,34.95,101000
101002,88-60-8,88-60-8,Cc1ccc(c(O)c1)C(C)(C)C,"Phenol, 2-(1,1-dimethylethyl)-5-methyl-",2-tert-Butyl-5-methylphenol,2-tert-butyl-5-methylphenol,28308,DTXSID2026529,Cc1ccc(c(O)c1)C(C)(C)C,"InChI=1S/C11H16O/c1-8-5-6-9(10(12)7-8)11(2,3)4/h5-7,12H,1-4H3",XOUQAVYLRNOXDO-UHFFFAOYSA-N,?,,46.5,101002
101003,88-61-9,88-61-9,Cc1cc(C)c(cc1)S(O)(=O)=O,"Benzenesulfonic acid, 2,4-dimethyl-","2,4-Dimethylbenzenesulfonic acid",C8H10O3S,28309,DTXSID1047023,Cc1cc(C)c(cc1)S(O)(=O)=O,"InChI=1S/C8H10O3S/c1-6-3-4-8(7(2)5-6)12(9,10)11/h3-5H,1-2H3,(H,9,10,11)",CHZLVSBMXZSPNN-UHFFFAOYSA-N,?,,57.0,101003
101004,88-65-3,88-65-3,OC(=O)c1ccccc1Br,O-BROMOBENZOIC ACID,2-Bromobenzoic acid,2-bromobenzoic acid,28310,DTXSID3038690,OC(=O)c1ccccc1Br,"InChI=1S/C7H5BrO2/c8-6-4-2-1-3-5(6)7(9)10/h1-4H,(H,9,10)",XRXMNWGCKISMOH-UHFFFAOYSA-N,?,,150.0,101004
101006,88-69-7,88-69-7,CC(C)c1ccccc1O,O-ISOPROPYLPHENOL,2-Isopropylphenol,2-(propan-2-yl)phenol,28312,DTXSID2044391,CC(C)c1ccccc1O,"InChI=1S/C9H12O/c1-7(2)8-5-3-4-6-9(8)10/h3-7,10H,1-2H3",CRBJBYGJVIBWIY-UHFFFAOYSA-N,?,,15.5,101006
101007,88-72-2,88-72-2,Cc1ccccc1[N+]([O-])=O,2-NITROTOLUENE,2-Nitrotoluene,1-methyl-2-nitrobenzene,28313,DTXSID4025791,Cc1ccccc1[N+]([O-])=O,"InChI=1S/C7H7NO2/c1-6-4-2-3-5-7(6)8(9)10/h2-5H,1H3",PLAZTCDQAHEYBI-UHFFFAOYSA-N,?,,-10.0,101007
101008,88-73-3,88-73-3,[O-][N+](=O)c1ccccc1Cl,2-CHLORO-1-NITROBENZENE,1-Chloro-2-nitrobenzene,1-chloro-2-nitrobenzene,28314,DTXSID0020280,[O-][N+](=O)c1ccccc1Cl,InChI=1S/C6H4ClNO2/c7-5-3-1-2-4-6(5)8(9)10/h1-4H,BFCFYVKQTRLZHA-UHFFFAOYSA-N,?,,32.5,101008
101010,88-75-5,88-75-5,[O-][N+](=O)c1ccccc1O,2-NITROPHENOL,2-Nitrophenol,2-nitrophenol,28316,DTXSID1021790,[O-][N+](=O)c1ccccc1O,"InChI=1S/C6H5NO3/c8-6-4-2-1-3-5(6)7(9)10/h1-4,8H",IQUPABOKLQSFBK-UHFFFAOYSA-N,?,,44.8,101010
101011,88-85-7,88-85-7,CCC(C)c1cc(cc(c1O)[N+]([O-])=O)[N+]([O-])=O,DINOSEB,Dinoseb,"2-(butan-2-yl)-4,6-dinitrophenol",28317,DTXSID3020207,CCC(C)c1cc(cc(c1O)[N+]([O-])=O)[N+]([O-])=O,"InChI=1S/C10H12N2O5/c1-3-6(2)8-4-7(11(14)15)5-9(10(8)13)12(16)17/h4-6,13H,3H2,1-2H3",OWZPCEFYPSAJFR-UHFFFAOYSA-N,?,,40.0,101011
101012,88-87-9,88-87-9,[O-][N+](=O)c1cc(Cl)cc(c1O)[N+]([O-])=O,"4-CHLORO-2,6-DINITROPHENOL","Phenol, 4-chloro-2,6-dinitro-","4-Chloro-2,6-dinitrophenol",28318,DTXSID6058978,[O-][N+](=O)c1cc(Cl)cc(c1O)[N+]([O-])=O,"InChI=1S/C6H3ClN2O5/c7-3-1-4(8(11)12)6(10)5(2-3)9(13)14/h1-2,10H",KESYALTWUAFAAC-UHFFFAOYSA-N,?,,81.0,101012
101014,88-89-1,88-89-1,[O-][N+](=O)c1cc(c(O)c(c1)[N+]([O-])=O)[N+]([O-])=O,"2,4,6-TRINITROPHENOL",Picric acid,"2,4,6-trinitrophenol",28320,DTXSID4025909,[O-][N+](=O)c1cc(c(O)c(c1)[N+]([O-])=O)[N+]([O-])=O,"InChI=1S/C6H3N3O7/c10-6-4(8(13)14)1-3(7(11)12)2-5(6)9(15)16/h1-2,10H",OXNIZHLAWKMVMX-UHFFFAOYSA-N,?,,122.5,101014
101015,88-95-9,88-95-9,O=C(Cl)c1ccccc1C(=O)Cl,PHTHALOYL CHLORIDE,"1,2-Benzenedicarbonyl dichloride","benzene-1,2-dicarbonyl dichloride",28321,DTXSID8038691,O=C(Cl)c1ccccc1C(=O)Cl,InChI=1S/C8H4Cl2O2/c9-7(11)5-3-1-2-4-6(5)8(10)12/h1-4H,FYXKZNLBZKRYSS-UHFFFAOYSA-N,?,,15.5,101015
101016,88-96-0,88-96-0,NC(=O)c1ccccc1C(N)=O,"1,2-BENZENEDICARBOXAMIDE",Phthalamide,"benzene-1,2-dicarboxamide",28322,DTXSID7021158,NC(=O)c1ccccc1C(N)=O,"InChI=1S/C8H8N2O2/c9-7(11)5-3-1-2-4-6(5)8(10)12/h1-4H,(H2,9,11)(H2,10,12)",NAYYNDKKHOIIOD-UHFFFAOYSA-N,?,,222.0,101016
101018,89-02-1,NOCAS_859151,[O-][N+](=O)c1cc(ccc1S(O)(=O)=O)[N+]([O-])=O,"2,4-Dinitrobenzenesulfonic acid","2,4-dinitro Benzenesulfonic acid dihydrate","2,4-dinitrobenzenesulfonic acid dihydrate",28324,DTXSID00859151,[O-][N+](=O)c1cc(ccc1S(O)(=O)=O)[N+]([O-])=O,"InChI=1S/C6H4N2O7S/c9-7(10)4-1-2-6(16(13,14)15)5(3-4)8(11)12/h1-3H,(H,13,14,15)",OVOJUAKDTOOXRF-UHFFFAOYSA-N,?,,108.0,101018
101019,89-05-4,89-05-4,OC(=O)c1cc(c(cc1C(O)=O)C(O)=O)C(O)=O,PYROMELLITIC ACID,Pyromellitic acid,C10H6O8,28325,DTXSID8044466,OC(=O)c1cc(c(cc1C(O)=O)C(O)=O)C(O)=O,"InChI=1S/C10H6O8/c11-7(12)3-1-4(8(13)14)6(10(17)18)2-5(3)9(15)16/h1-2H,(H,11,12)(H,13,14)(H,15,16)(H,17,18)",CYIDZMCFTVVTJO-UHFFFAOYSA-N,?,,276.0,101019
101020,89-25-8,89-25-8,CC1CC(=O)N(N=1)c1ccccc1,Norphenazone,1-Phenyl-3-methyl-5-pyrazolone,"5-methyl-2-phenyl-2,4-dihydro-3H-pyrazol-3-one",28326,DTXSID9021130,CC1CC(=O)N(N=1)c1ccccc1,"InChI=1S/C10H10N2O/c1-8-7-10(13)12(11-8)9-5-3-2-4-6-9/h2-6H,7H2,1H3",QELUYTUMUWHWMC-UHFFFAOYSA-N,?,,129.0,101020
101023,89-37-2,89-37-2,CN(C)C(=S)Sc1ccc(cc1[N+]([O-])=O)[N+]([O-])=O,"Carbamodithioic acid, dimethyl-, 2,4-dinitrophen","Carbamodithioic acid, dimethyl-, 2,4-dinitrophenyl ester","(2,4-dinitrophenyl) dimethylaminomethanedithioate",28328,DTXSID0058986,CN(C)C(=S)Sc1ccc(cc1[N+]([O-])=O)[N+]([O-])=O,"InChI=1S/C9H9N3O4S2/c1-10(2)9(17)18-8-4-3-6(11(13)14)5-7(8)12(15)16/h3-5H,1-2H3",AIWZJEMZVHJAQB-UHFFFAOYSA-N,?,,152.5,101023
101024,89-39-4,89-39-4,COc1ccc(cc1[N+]([O-])=O)OC,"Benzene, 1,4-dimethoxy-2-nitro-","Benzene, 1,4-dimethoxy-2-nitro-","1,4-Dimethoxy-2-nitrobenzene",28329,DTXSID5058987,COc1ccc(cc1[N+]([O-])=O)OC,"InChI=1S/C8H9NO4/c1-12-6-3-4-8(13-2)7(5-6)9(10)11/h3-5H,1-2H3",UPTOWXNJLZJTGD-UHFFFAOYSA-N,?,,72.5,101024
101026,89-52-1,89-52-1,CC(=O)Nc1ccccc1C(O)=O,N-ACETYL O-AMINOBENZOIC ACID,"Benzoic acid, 2-(acetylamino)-",2-Acetamidobenzoic acid,28331,DTXSID9058991,CC(=O)Nc1ccccc1C(O)=O,"InChI=1S/C9H9NO3/c1-6(11)10-8-5-3-2-4-7(8)9(12)13/h2-5H,1H3,(H,10,11)(H,12,13)",QSACCXVHEVWNMX-UHFFFAOYSA-N,?,,185.5,101026
101027,89-54-3,89-54-3,Nc1cc(C(O)=O)c(Cl)cc1,"Benzoic acid, 5-amino-2-chloro-","Benzoic acid, 5-amino-2-chloro-",5-Amino-2-chlorobenzoic acid,28332,DTXSID4058992,Nc1cc(C(O)=O)c(Cl)cc1,"InChI=1S/C7H6ClNO2/c8-6-2-1-4(9)3-5(6)7(10)11/h1-3H,9H2,(H,10,11)",GVCFFVPEOLCYNN-UHFFFAOYSA-N,?,,188.0,101027
101029,89-56-5,89-56-5,Cc1ccc(O)c(c1)C(O)=O,5-METHYLSALICYLIC ACID,5-Methylsalicylic acid,2-Hydroxy-5-methylbenzoic acid,28333,DTXSID20237472,Cc1ccc(O)c(c1)C(O)=O,"InChI=1S/C8H8O3/c1-5-2-3-7(9)6(4-5)8(10)11/h2-4,9H,1H3,(H,10,11)",DLGBEGBHXSAQOC-UHFFFAOYSA-N,?,,151.0,101029
101031,89-58-7,89-58-7,Cc1cc(c(C)cc1)[N+]([O-])=O,"Benzene, 1,4-dimethyl-2-nitro-","1,4-Dimethyl-2-nitrobenzene","1,4-dimethyl-2-nitrobenzene",28335,DTXSID2025137,Cc1cc(c(C)cc1)[N+]([O-])=O,"InChI=1S/C8H9NO2/c1-6-3-4-7(2)8(5-6)9(10)11/h3-5H,1-2H3",BSFHJMGROOFSRA-UHFFFAOYSA-N,?,,-25.0,101031
101032,89-59-8,89-59-8,Cc1ccc(Cl)cc1[N+]([O-])=O,"BENZENE, 4-CHLORO-1-METHYL-2-NITRO-","Benzene, 4-chloro-1-methyl-2-nitro-",4-chloro-1-methyl-2-nitrobenzene,28336,DTXSID4058994,Cc1ccc(Cl)cc1[N+]([O-])=O,"InChI=1S/C7H6ClNO2/c1-5-2-3-6(8)4-7(5)9(10)11/h2-4H,1H3",SQFLFRQWPBEDHM-UHFFFAOYSA-N,?,,38.0,101032
101033,89-60-1,89-60-1,Cc1cc(c(Cl)cc1)[N+]([O-])=O,"Benzene, 1-chloro-4-methyl-2-nitro-","Benzene, 1-chloro-4-methyl-2-nitro-",1-Chloro-4-methyl-2-nitrobenzene,28337,DTXSID9058995,Cc1cc(c(Cl)cc1)[N+]([O-])=O,"InChI=1S/C7H6ClNO2/c1-5-2-3-6(8)7(4-5)9(10)11/h2-4H,1H3",NWESJZZPAJGHRZ-UHFFFAOYSA-N,?,,7.0,101033
101036,89-63-4,89-63-4,Nc1ccc(Cl)cc1[N+]([O-])=O,4-CHLORO-2-NITROANILINE,4-Chloro-2-nitroaniline,4-chloro-2-nitroaniline,28339,DTXSID4030384,Nc1ccc(Cl)cc1[N+]([O-])=O,"InChI=1S/C6H5ClN2O2/c7-4-1-2-5(8)6(3-4)9(10)11/h1-3H,8H2",PBGKNXWGYQPUJK-UHFFFAOYSA-N,?,,116.5,101036
101037,89-64-5,89-64-5,[O-][N+](=O)c1cc(Cl)ccc1O,4-CHLORO-2-NITROPHENOL,4-Chloro-2-nitrophenol,4-CHLORO-2-NITROPHENOL,28340,DTXSID4058996,[O-][N+](=O)c1cc(Cl)ccc1O,"InChI=1S/C6H4ClNO3/c7-4-1-2-6(9)5(3-4)8(10)11/h1-3,9H",NWSIFTLPLKCTSX-UHFFFAOYSA-N,?,,88.5,101037
101038,89-68-9,89-68-9,Cc1cc(O)c(cc1Cl)C(C)C,CHLOROTHYMOL,6-Chlorothymol,4-chloro-5-methyl-2-(propan-2-yl)phenol,28341,DTXSID2041547,Cc1cc(O)c(cc1Cl)C(C)C,"InChI=1S/C10H13ClO/c1-6(2)8-5-9(11)7(3)4-10(8)12/h4-6,12H,1-3H3",KFZXVMNBUMVKLN-UHFFFAOYSA-N,?,,63.0,101038
101040,89-72-5,89-72-5,CCC(C)c1ccccc1O,O-SEC-BUTYLPHENOL,2-(Butan-2-yl)phenol,2-(butan-2-yl)phenol,28343,DTXSID2022331,CCC(C)c1ccccc1O,"InChI=1S/C10H14O/c1-3-8(2)9-6-4-5-7-10(9)11/h4-8,11H,3H2,1-2H3",NGFPWHGISWUQOI-UHFFFAOYSA-N,?,,16.0,101040
101041,89-73-6,89-73-6,Oc1ccccc1C(=O)NO,Salicylhydroxamic acid,Salicylhydroxamic acid,C7H7NO3,28344,DTXSID5075365,Oc1ccccc1C(=O)NO,"InChI=1S/C7H7NO3/c9-6-4-2-1-3-5(6)7(10)8-11/h1-4,9,11H,(H,8,10)",HBROZNQEVUILML-UHFFFAOYSA-N,?,,168.0,101041
101042,89-75-8,89-75-8,O=C(Cl)c1ccc(Cl)cc1Cl,"Benzoyl chloride, 2,4-dichloro-","2,4-Dichlorobenzoyl chloride","2,4-dichlorobenzoyl chloride",28345,DTXSID2052603,O=C(Cl)c1ccc(Cl)cc1Cl,InChI=1S/C7H3Cl3O/c8-4-1-2-5(7(10)11)6(9)3-4/h1-3H,CEOCVKWBUWKBKA-UHFFFAOYSA-N,?,,16.5,101042
101044,89-78-1|2216-51-5,1490-04-6|2216-51-5,CC(C)C1CCC(C)CC1O,"MENTHOL, MENTHOL (L)",Menthol,5-methyl-2-(propan-2-yl)cyclohexanol,28347|33534,DTXSID8029650|DTXSID1022180,CC(C)C1CCC(C)CC1O,"InChI=1S/C10H20O/c1-7(2)9-5-4-8(3)6-10(9)11/h7-11H,4-6H2,1-3H3",NOOLISFMXDJSKH-UHFFFAOYSA-N,?,,39.0,101044
101045,89-79-2,89-79-2,C[C@@H]1CC[C@H]([C@@H](O)C1)C(C)=C,"Cyclohexanol, 5-methyl-2-(1-methylethenyl)-,  1R",Isopulegol,"(1S,2S,5R)-5-methyl-2-(prop-1-en-2-yl)cyclohexanol",28348,DTXSID5047116,CC1CCC(C(O)C1)C(C)=C,"InChI=1S/C10H18O/c1-7(2)9-5-4-8(3)6-10(9)11/h8-11H,1,4-6H2,2-3H3",ZYTMANIQRDEHIO-UHFFFAOYSA-N,?,,78.0,101045
101046,89-83-8,89-83-8,Cc1ccc(C(C)C)c(O)c1,THYMOL,Thymol,5-methyl-2-(propan-2-yl)phenol,28349,DTXSID6034972,Cc1ccc(C(C)C)c(O)c1,"InChI=1S/C10H14O/c1-7(2)9-5-4-8(3)6-10(9)11/h4-7,11H,1-3H3",MGSRCZKZVOBKFT-UHFFFAOYSA-N,?,,51.5,101046