ChemID,source_casrn,CAS,SMILES,NAME,preferred_name,iupac,MPID,dsstox_substance_id,Canonical_QSARr,InChI_Code_QSARr,InChI Key_QSARr,Salt_Solvent,Salt_Solvent_ID,MP,ID
107467,4271-30-1,4271-30-1,Nc1ccc(cc1)C(=O)N[C@@H](CCC(O)=O)C(O)=O,N-(p-Aminobenzoyl)glutamic Acid,4-Aminobenzoyl-poly-gamma-glutamate,(2S)-2-[(4-aminobenzoyl)amino]pentanedioic acid,34201,DTXSID10873641,Nc1ccc(cc1)C(=O)NC(CCC(O)=O)C(O)=O,"InChI=1S/C12H14N2O5/c13-8-3-1-7(2-4-8)11(17)14-9(12(18)19)5-6-10(15)16/h1-4,9H,5-6,13H2,(H,14,17)(H,15,16)(H,18,19)",GADGMZDHLQLZRI-UHFFFAOYSA-N,?,,173.0,107467
107471,4282-32-0,4282-32-0,COC(=O)c1ccc(o1)C(=O)OC,"2,5-FURANDICARBOXYLIC ACID, DIMETHYL ESTER","dimethyl furan-2,5-dicarboxylate",C8H8O5,34205,DTXSID50307531,COC(=O)c1ccc(o1)C(=O)OC,"InChI=1S/C8H8O5/c1-11-7(9)5-3-4-6(13-5)8(10)12-2/h3-4H,1-2H3",UWQOPFRNDNVUOA-UHFFFAOYSA-N,?,,112.0,107471
107475,4292-19-7,4292-19-7,CCCCCCCCCCCCI,1-IODODODECANE,"Dodecane,1-iodo-",1-iodododecane,34209,DTXSID1049302,CCCCCCCCCCCCI,"InChI=1S/C12H25I/c1-2-3-4-5-6-7-8-9-10-11-12-13/h2-12H2,1H3",GCDPERPXPREHJF-UHFFFAOYSA-N,?,,0.3,107475
107479,4313-03-5,5910-85-0,CCC=CC=CC=O,"2,4-Heptadienal, (E,E)-","2,4-Heptadienal",?,34213,DTXSID9064057,CCC=CC=CC=O,"InChI=1S/C7H10O/c1-2-3-4-5-6-7-8/h3-7H,2H2,1H3/b4-3+,6-5+",SATICYYAWWYRAM-VNKDHWASSA-N,?,,84.5,107479
107485,4342-03-4,4342-03-4,CN(C)N=Nc1[n]c[nH]c1C(N)=O,IMIDAZOL-4-CONH2-5(33DIME-1-TRIAZENO),Dacarbazine,"4-(3,3-dimethyltriaz-1-en-1-yl)-1H-imidazole-5-carboxamide",34217,DTXSID0020369,CN(C)N=Nc1[n]c[nH]c1C(N)=O,"InChI=1S/C6H10N6O/c1-12(2)11-10-6-4(5(7)13)8-3-9-6/h3H,1-2H3,(H2,7,13)(H,8,9)/b11-10+",FDKXTQMXEQVLRF-ZHACJKMWSA-N,?,,205.0,107485
107492,4383-06-6,4383-06-6,COc1ccc(CO)cc1O,3-HYDROXY-4-METHOXY-BENZYLALKOHOL,3-Hydroxy-4-methoxybenzyl alcohol,5-(hydroxymethyl)-2-methoxyphenol,34221,DTXSID40195949,COc1ccc(CO)cc1O,"InChI=1S/C8H10O3/c1-11-8-3-2-6(5-9)4-7(8)10/h2-4,9-10H,5H2,1H3",WHKRHBLAJFYZKF-UHFFFAOYSA-N,?,,136.0,107492
107496,4408-78-0,4408-78-0,OC(=O)CP(O)(O)=O,PHOSPHONOACETIC ACID,Phosphonoacetic acid,phosphonoacetic acid,34225,DTXSID2045107,OC(=O)CP(O)(O)=O,"InChI=1S/C2H5O5P/c3-2(4)1-8(5,6)7/h1H2,(H,3,4)(H2,5,6,7)",XUYJLQHKOGNDPB-UHFFFAOYSA-N,?,,144.5,107496
107500,4422-95-1,4422-95-1,O=C(Cl)c1cc(cc(c1)C(=O)Cl)C(=O)Cl,"1,3,5-Benzenetricarbonyl trichloride","1,3,5-Benzenetricarbonyl trichloride","benzene-1,3,5-tricarbonyl trichloride",34229,DTXSID7044429,O=C(Cl)c1cc(cc(c1)C(=O)Cl)C(=O)Cl,InChI=1S/C9H3Cl3O3/c10-7(13)4-1-5(8(11)14)3-6(2-4)9(12)15/h1-3H,UWCPYKQBIPYOLX-UHFFFAOYSA-N,?,,36.3,107500
107504,4428-13-1,NOCAS_871076,OC(Cc1ccccc1)(c1ccccc1)c1ccccc1,"Benzeneethanol, .alpha.,.alpha.-diphenyl-",,,34233,DTXSID60871076,OC(Cc1ccccc1)(c1ccccc1)c1ccccc1,"InChI=1S/C20H18O/c21-20(18-12-6-2-7-13-18,19-14-8-3-9-15-19)16-17-10-4-1-5-11-17/h1-15,21H,16H2",QMPKJVBRCQVFLL-UHFFFAOYSA-N,?,,89.5,107504
107509,4437-20-1,4437-20-1,C(SSCc1ccco1)c1ccco1,"Furan, 2,2'- dithiobis(methylene) bis-","Furan, 2,2'-[dithiobis(methylene)]bis-",2-(furan-2-ylmethyldisulfanylmethyl)furan,34237,DTXSID3063463,C(SSCc1ccco1)c1ccco1,"InChI=1S/C10H10O2S2/c1-3-9(11-5-1)7-13-14-8-10-4-2-6-12-10/h1-6H,7-8H2",CBJPZHSWLMJQRI-UHFFFAOYSA-N,?,,10.0,107509
107513,4443-55-4,4443-55-4,CCCCCCCCCCCCCCCCCCCCC1CCCCC1,EICOSYLCYCLOHEXANE,"Cyclohexane, eicosyl-",icosylcyclohexane,34241,DTXSID1075064,CCCCCCCCCCCCCCCCCCCCC1CCCCC1,"InChI=1S/C26H52/c1-2-3-4-5-6-7-8-9-10-11-12-13-14-15-16-17-18-20-23-26-24-21-19-22-25-26/h26H,2-25H2,1H3",PSPNTGGVAYLSJO-UHFFFAOYSA-N,?,,48.5,107513
107517,4455-26-9,4455-26-9,CN(CCCCCCCC)CCCCCCCC,"1-Octanamine, N-methyl-N-octyl-",N-Methyldioctylamine,N-methyl-N-octyloctan-1-amine,34245,DTXSID9042209,CN(CCCCCCCC)CCCCCCCC,"InChI=1S/C17H37N/c1-4-6-8-10-12-14-16-18(3)17-15-13-11-9-7-5-2/h4-17H2,1-3H3",YJLYANLCNIKXMG-UHFFFAOYSA-N,?,,-30.1,107517
107522,4462-95-7,4462-95-7,OC(=O)C1C(C(C1c1ccccc1)C(O)=O)c1ccccc1,Truxillic Acid,Truxillic acid,"2,4-di(phenyl)cyclobutane-1,3-dicarboxylic acid",34250,DTXSID20196252,OC(=O)C1C(C(C1c1ccccc1)C(O)=O)c1ccccc1,"InChI=1S/C18H16O4/c19-17(20)15-13(11-7-3-1-4-8-11)16(18(21)22)14(15)12-9-5-2-6-10-12/h1-10,13-16H,(H,19,20)(H,21,22)",QWFRRFLKWRIKSZ-UHFFFAOYSA-N,?,,228.0,107522
107526,4471-41-4,4471-41-4,OCCNc1ccc(NCCO)c2c1C(=O)c1ccccc1C2=O,C.I. DISPERSE BLUE 23,"9,10-Anthracenedione, 1,4-bis[(2-hydroxyethyl)amino]-","1,4-bis(2-hydroxyethylamino)anthracene-9,10-dione",34254,DTXSID1063487,OCCNc1ccc(NCCO)c2c1C(=O)c1ccccc1C2=O,"InChI=1S/C18H18N2O4/c21-9-7-19-13-5-6-14(20-8-10-22)16-15(13)17(23)11-3-1-2-4-12(11)18(16)24/h1-6,19-22H,7-10H2",PAZPNGYXNBABCM-UHFFFAOYSA-N,?,,248.0,107526
107531,4519-39-5,NOCAS_871084,OC(=O)c1cccc(F)c1F,"2,3-Difluorobenzoic Acid",,,34258,DTXSID90871084,OC(=O)c1cccc(F)c1F,"InChI=1S/C7H4F2O2/c8-5-3-1-2-4(6(5)9)7(10)11/h1-3H,(H,10,11)",JLZVIWSFUPLSOR-UHFFFAOYSA-N,?,,164.0,107531
107536,4537-00-2,4537-00-2,OC(=O)c1cccc2cccc(Cl)c21,8-Chloro-naphthalene-1-carboxylic acid,"1-Naphthoic acid, 8-chloro-",8-chloronaphthalene-1-carboxylic acid,34262,DTXSID70196489,OC(=O)c1cccc2cccc(Cl)c21,"InChI=1S/C11H7ClO2/c12-9-6-2-4-7-3-1-5-8(10(7)9)11(13)14/h1-6H,(H,13,14)",LNELFKSVWJYNRK-UHFFFAOYSA-N,?,,171.5,107536
107540,4549-32-0,4549-32-0,BrCCCCCCCCBr,"Octane, 1,8-dibromo-","Octane, 1,8-dibromo-","1,8-Dibromooctane",34266,DTXSID5063520,BrCCCCCCCCBr,InChI=1S/C8H16Br2/c9-7-5-3-1-2-4-6-8-10/h1-8H2,DKEGCUDAFWNSSO-UHFFFAOYSA-N,?,,15.5,107540
107544,4593-90-2,772-15-6,C[C@@H](CC(O)=O)c1ccccc1,3-PHENYL-N-BUTYRIC ACID,(S)-3-Phenylbutyric acid,C10H12O2,34270,DTXSID60357380,CC(CC(O)=O)c1ccccc1,"InChI=1S/C10H12O2/c1-8(7-10(11)12)9-5-3-2-4-6-9/h2-6,8H,7H2,1H3,(H,11,12)",ZZEWMYILWXCRHZ-UHFFFAOYSA-N,?,,38.0,107544
107548,4606-65-9,37675-20-0,OC[C@H]1CNCCC1,Piperidin-3-yl-methanol,(R)-(Piperidin-3-yl)methanol,C6H13NO,34274,DTXSID80357382,OCC1CNCCC1,"InChI=1S/C6H13NO/c8-5-6-2-1-3-7-4-6/h6-8H,1-5H2",VUNPWIPIOOMCPT-UHFFFAOYSA-N,?,,61.0,107548
107553,4636-16-2,4636-16-2,O=C(CI)c1ccccc1,"ETHANONE, 2-IODO-1-PHENYL-","Ethanone, 2-iodo-1-phenyl-",2-iodo-1-phenylethanone,34278,DTXSID80196819,O=C(CI)c1ccccc1,"InChI=1S/C8H7IO/c9-6-8(10)7-4-2-1-3-5-7/h1-5H,6H2",CREOHKRPSSUXCW-UHFFFAOYSA-N,?,,34.4,107553
107557,4670-56-8,NOCAS_863434,Cc1ccc(c(O)c1)C(=O)OC,2-Hydroxy-4-methyl-benzoic acid methyl ester,,,34282,DTXSID40863434,Cc1ccc(c(O)c1)C(=O)OC,"InChI=1S/C9H10O3/c1-6-3-4-7(8(10)5-6)9(11)12-2/h3-5,10H,1-2H3",UITFCFWKYAOJEJ-UHFFFAOYSA-N,?,,27.5,107557
107563,4705-34-4,NOCAS_864610,COc1ccc(cc1)C=Cc1ccc(cc1)OC,"BENZENE, 1,1'-(1,2-ETHENEDIYL)BIS[4-METHOXY-",,,34287,DTXSID10864610,COc1ccc(cc1)C=Cc1ccc(cc1)OC,"InChI=1S/C16H16O2/c1-17-15-9-5-13(6-10-15)3-4-14-7-11-16(18-2)12-8-14/h3-12H,1-2H3/b4-3+",CAWFCZIEFIQKRV-ONEGZZNKSA-N,?,,214.5,107563
107567,4721-69-1,4721-69-1,C[C@]12CC[C@@H]3[C@H]4CCC(=O)C(O)=C4CC[C@H]3[C@@H]1CC[C@@H]2O,Oxabolone,,,34291,DTXSID50878357,CC12CCC3C4CCC(=O)C(O)=C4CCC3C1CCC2O,"InChI=1S/C18H26O3/c1-18-9-8-11-10-4-6-15(19)17(21)13(10)3-2-12(11)14(18)5-7-16(18)20/h10-12,14,16,20-21H,2-9H2,1H3",GXHBCWCMYVTJOW-UHFFFAOYSA-N,?,,189.0,107567
107572,4731-84-4,4731-84-4,CCCC(c1ccc(O)cc1)c1ccc(O)cc1,"Phenol, 4,4'-butylidenebis-","phenol, 4,4'-butylidenebis-",C16H18O2,34295,DTXSID20280701,CCCC(c1ccc(O)cc1)c1ccc(O)cc1,"InChI=1S/C16H18O2/c1-2-3-16(12-4-8-14(17)9-5-12)13-6-10-15(18)11-7-13/h4-11,16-18H,2-3H2,1H3",GXDIDDARPBFKNG-UHFFFAOYSA-N,?,,137.0,107572
107576,4771-47-5,4771-47-5,[O-][N+](=O)c1c(Cl)cccc1C(O)=O,3-Chloro-2-nitrobenzoic acid,3-Chloro-2-nitrobenzoic acid,3-CHLORO-2-NITROBENZOIC ACID,34299,DTXSID70197259,[O-][N+](=O)c1c(Cl)cccc1C(O)=O,"InChI=1S/C7H4ClNO4/c8-5-3-1-2-4(7(10)11)6(5)9(12)13/h1-3H,(H,10,11)",VCHSXYHBMFKRBK-UHFFFAOYSA-N,?,,238.0,107576
107580,4780-79-4,4780-79-4,OCc1cccc2ccccc21,1-NAPHTHALENEMETHANOL,1-Hydroxymethylnaphthalene,naphthalen-1-ylmethanol,34303,DTXSID30197295,OCc1cccc2ccccc21,"InChI=1S/C11H10O/c12-8-10-6-3-5-9-4-1-2-7-11(9)10/h1-7,12H,8H2",PBLNHHSDYFYZNC-UHFFFAOYSA-N,?,,64.0,107580
107584,4837-88-1,4837-88-1,Cc1c(cccc1[N+]([O-])=O)OC,1-MEO-2-ME-3-NO2-BENZENE,2-Methyl-3-nitroanisole,1-methoxy-2-methyl-3-nitrobenzene,34307,DTXSID50197499,Cc1c(cccc1[N+]([O-])=O)OC,"InChI=1S/C8H9NO3/c1-6-7(9(10)11)4-3-5-8(6)12-2/h3-5H,1-2H3",HQCZLEAGIOIIMC-UHFFFAOYSA-N,?,,55.0,107584
107589,4860-03-1,4860-03-1,CCCCCCCCCCCCCCCCCl,1-CHLOROHEXADECANE,1-Chlorohexadecane,C16H33Cl,34311,DTXSID3027580,CCCCCCCCCCCCCCCCCl,"InChI=1S/C16H33Cl/c1-2-3-4-5-6-7-8-9-10-11-12-13-14-15-16-17/h2-16H2,1H3",CLWAXFZCVYJLLM-UHFFFAOYSA-N,?,,17.9,107589
107593,4884-25-7,NOCAS_871103,OC1CCCC1C1CCCC1,"1,1'-Bicyclopentyl -2-ol",,,34315,DTXSID70871103,OC1CCCC1C1CCCC1,"InChI=1S/C10H18O/c11-10-7-3-6-9(10)8-4-1-2-5-8/h8-11H,1-7H2",QMWSCHMOUMCING-UHFFFAOYSA-N,?,,20.0,107593
107598,4914-30-1,66899-87-4,CCC1CN2CCc3cc(OC)c(cc3[C@@H]2CC=1C[C@@H]1NCCc2cc(OC)c(cc21)OC)OC,Dehydroemetine,"Dehydroisoemetine, (+/-)-",?,34320,DTXSID10217041,CCC1CN2CCc3cc(OC)c(cc3C2CC=1CC1NCCc2cc(OC)c(cc21)OC)OC,"InChI=1S/C29H38N2O4/c1-6-18-17-31-10-8-20-14-27(33-3)29(35-5)16-23(20)25(31)12-21(18)11-24-22-15-28(34-4)26(32-2)13-19(22)7-9-30-24/h13-16,24-25,30H,6-12,17H2,1-5H3",XXLZPUYGHQWHRN-UHFFFAOYSA-N,?,,95.0,107598
107603,4920-77-8,4920-77-8,Cc1cccc(O)c1[N+]([O-])=O,3-METHYL-2-NITROPHENOL,3-Methyl-2-nitrophenol,3-METHYL-2-NITROPHENOL,34325,DTXSID90197716,Cc1cccc(O)c1[N+]([O-])=O,"InChI=1S/C7H7NO3/c1-5-3-2-4-6(9)7(5)8(10)11/h2-4,9H,1H3",QIORDSKCCHRSSD-UHFFFAOYSA-N,?,,37.0,107603
107609,4957-14-6,4957-14-6,Cc1ccc(Cc2ccc(C)cc2)cc1,"BENZENE, 1,1'-METHYLENEBIS[4-METHYL-","Methane, di-p-tolyl-",1-methyl-4-[(4-methylphenyl)methyl]benzene,34329,DTXSID90197852,Cc1ccc(Cc2ccc(C)cc2)cc1,"InChI=1S/C15H16/c1-12-3-7-14(8-4-12)11-15-9-5-13(2)6-10-15/h3-10H,11H2,1-2H3",HZAWPPRBCALFRN-UHFFFAOYSA-N,?,,28.0,107609
107613,4979-32-2,4979-32-2,C1CCCCC1N(Sc1[n]c2ccccc2[s]1)C1CCCCC1,"2-Benzothiazolesulfenamide, N,N-dicyclohexyl-","N,N-Dicyclohexyl-2-benzothiazolesulfenamide","N-(1,3-benzothiazol-2-ylsulfanyl)-N-cyclohexylcyclohexanamine",34333,DTXSID3027584,C1CCCCC1N(Sc1[n]c2ccccc2[s]1)C1CCCCC1,"InChI=1S/C19H26N2S2/c1-3-9-15(10-4-1)21(16-11-5-2-6-12-16)23-19-20-17-13-7-8-14-18(17)22-19/h7-8,13-16H,1-6,9-12H2",CMAUJSNXENPPOF-UHFFFAOYSA-N,?,,99.75,107613
107617,5022-29-7,5022-29-7,CCN1C(=O)c2ccccc2C1=O,"1H-Isoindole-1,3(2H)-dione, N-ethyl-",N-Ethylphthalimide,"2-ethyl-1H-isoindole-1,3(2H)-dione",34337,DTXSID4052134,CCN1C(=O)c2ccccc2C1=O,"InChI=1S/C10H9NO2/c1-2-11-9(12)7-5-3-4-6-8(7)10(11)13/h3-6H,2H2,1H3",JZDSOQSUCWVBMV-UHFFFAOYSA-N,?,,79.0,107617
107623,5104-49-4,5104-49-4,CC(C(O)=O)c1cc(F)c(cc1)-c1ccccc1,FLURBIPROFEN,Flurbiprofen,2-(2-fluorobiphenyl-4-yl)propanoic acid,34341,DTXSID0037231,CC(C(O)=O)c1cc(F)c(cc1)-c1ccccc1,"InChI=1S/C15H13FO2/c1-10(15(17)18)12-7-8-13(14(16)9-12)11-5-3-2-4-6-11/h2-10H,1H3,(H,17,18)",SYTBZMRGLBWNTM-UHFFFAOYSA-N,?,,110.5,107623
107627,5145-99-3,5145-99-3,CCSC(C)C,ETHYL ISOPROPYL SULFIDE,Ethyl isopropyl sulphide,2-ethylsulfanylpropane,34345,DTXSID70199430,CCSC(C)C,"InChI=1S/C5H12S/c1-4-6-5(2)3/h5H,4H2,1-3H3",NZUQQADVSXWVNW-UHFFFAOYSA-N,?,,-122.2,107627
107631,5161-16-0,NOCAS_871116,CC1CCCCS1,"2H-THIOPYRAN, TETRAHYDRO-2-METHYL-",,,34349,DTXSID00871116,CC1CCCCS1,"InChI=1S/C6H12S/c1-6-4-2-3-5-7-6/h6H,2-5H2,1H3",VLBGYQISAJHVAD-UHFFFAOYSA-N,?,,-58.0,107631
107637,5202-89-1,5202-89-1,COC(=O)c1cc(Cl)ccc1N,2-AMINO-5-CHLORO-METHYLBENZOATE,Methyl 5-chloroanthranilate,methyl 2-amino-5-chlorobenzoate,34353,DTXSID90199992,COC(=O)c1cc(Cl)ccc1N,"InChI=1S/C8H8ClNO2/c1-12-8(11)6-4-5(9)2-3-7(6)10/h2-4H,10H2,1H3",IGHVUURTQGBABT-UHFFFAOYSA-N,?,,67.0,107637
107641,5251-93-4,5251-93-4,OC(=O)CONC(=O)c1ccccc1,BENZADOX,Benzadox,[(benzoylamino)oxy]acetic acid,34357,DTXSID7041625,OC(=O)CONC(=O)c1ccccc1,"InChI=1S/C9H9NO4/c11-8(12)6-14-10-9(13)7-4-2-1-3-5-7/h1-5H,6H2,(H,10,13)(H,11,12)",WDRGQGLIUAMOOC-UHFFFAOYSA-N,?,,140.0,107641
107645,5271-39-6,5271-39-6,CC(c1ccccc1)(c1ccccc1)c1ccccc1,"1,1',1''-Ethylidynetrisbenzene","Benzene, 1,1',1''-ethanetriyltris-","1,1-di(phenyl)ethylbenzene",34361,DTXSID50200679,CC(c1ccccc1)(c1ccccc1)c1ccccc1,"InChI=1S/C20H18/c1-20(17-11-5-2-6-12-17,18-13-7-3-8-14-18)19-15-9-4-10-16-19/h2-16H,1H3",QIDUHGHFWAMMPV-UHFFFAOYSA-N,?,,95.0,107645
107649,5292-53-5,5292-53-5,CCOC(=O)C(=Cc1ccccc1)C(=O)OCC,"DIETHYLMALONATE, BENZAL",Diethyl (phenylmethylene)malonate,diethyl 2-(phenylmethylidene)propanedioate,34365,DTXSID30200975,CCOC(=O)C(=Cc1ccccc1)C(=O)OCC,"InChI=1S/C14H16O4/c1-3-17-13(15)12(14(16)18-4-2)10-11-8-6-5-7-9-11/h5-10H,3-4H2,1-2H3",VUWPIBNKJSEYIN-UHFFFAOYSA-N,?,,32.0,107649
107653,5315-79-7,5315-79-7,Oc1ccc2ccc3cccc4ccc1c2c34,1-Hydroxypyrene,1-Hydroxypyrene,pyren-1-ol,34369,DTXSID1038298,Oc1ccc2ccc3cccc4ccc1c2c34,"InChI=1S/C16H10O/c17-14-9-7-12-5-4-10-2-1-3-11-6-8-13(14)16(12)15(10)11/h1-9,17H",BIJNHUAPTJVVNQ-UHFFFAOYSA-N,?,,180.0,107653
107657,5332-24-1,5332-24-1,Brc1cc2ccccc2[n]c1,3-BROMOQUINOLINE,"Quinoline, 3-bromo-",3-Bromoquinoline,34373,DTXSID0063787,Brc1cc2ccccc2[n]c1,InChI=1S/C9H6BrN/c10-8-5-7-3-1-2-4-9(7)11-6-8/h1-6H,ZGIKWINFUGEQEO-UHFFFAOYSA-N,?,,13.3,107657
107661,5337-93-9,5337-93-9,Cc1ccc(cc1)C(=O)CC,1-(4-METHYLPHENYL)-1-PROPANONE,p-Methylpropiophenone,1-(4-methylphenyl)propan-1-one,34377,DTXSID00201535,Cc1ccc(cc1)C(=O)CC,"InChI=1S/C10H12O/c1-3-10(11)9-6-4-8(2)5-7-9/h4-7H,3H2,1-2H3",PATYHUUYADUHQS-UHFFFAOYSA-N,?,,7.2,107661
107666,5344-90-1,5344-90-1,Nc1ccccc1CO,"Benzenemethanol, 2-amino-",2-Aminobenzenemethanol,(2-aminophenyl)methanol,34381,DTXSID6063800,Nc1ccccc1CO,"InChI=1S/C7H9NO/c8-7-4-2-1-3-6(7)5-9/h1-4,9H,5,8H2",VYFOAVADNIHPTR-UHFFFAOYSA-N,?,,83.5,107666
107671,5350-57-2,5350-57-2,NN=C(c1ccccc1)c1ccccc1,"METHANONE, DIPHENYL-, HYDRAZONE","Methanone, diphenyl-, hydrazone",di(phenyl)methylidenehydrazine,34385,DTXSID6063806,NN=C(c1ccccc1)c1ccccc1,"InChI=1S/C13H12N2/c14-15-13(11-7-3-1-4-8-11)12-9-5-2-6-10-12/h1-10H,14H2",QYCSNMDOZNUZIT-UHFFFAOYSA-N,?,,96.5,107671
107675,5355-16-8,5355-16-8,COc1ccc(Cc2c[n]c(N)[n]c2N)cc1OC,"2,4-NH2-5(3,4-DIMEOBZ)PYRIMIDINE",Diaveridine,"5-(3,4-dimethoxybenzyl)pyrimidine-2,4-diamine",34389,DTXSID2046200,COc1ccc(Cc2c[n]c(N)[n]c2N)cc1OC,"InChI=1S/C13H16N4O2/c1-18-10-4-3-8(6-11(10)19-2)5-9-7-16-13(15)17-12(9)14/h3-4,6-7H,5H2,1-2H3,(H4,14,15,16,17)",LDBTVAXGKYIFHO-UHFFFAOYSA-N,?,,233.0,107675
107679,5385-75-1,5385-75-1,c1c2c3c(c4ccccc41)-c1ccccc1-c3cc1ccccc12,"Dibenzo(a,e)fluoranthene","Dibenzo[a,e]fluoranthene",,34393,DTXSID9063821,c1c2c3c(c4ccccc41)-c1ccccc1-c3cc1ccccc12,InChI=1S/C24H14/c1-3-9-17-15(7-1)13-22-19-11-5-6-12-20(19)23-18-10-4-2-8-16(18)14-21(17)24(22)23/h1-14H,JHOWUOKQHJHGMU-UHFFFAOYSA-N,?,,232.0,107679
107685,5396-91-8,5396-91-8,O=C(CCc1ccccc1)CCc1ccccc1,"3-PENTANONE, 1,5-DIPHENYL-","1,5-Diphenyl-3-pentanone","1,5-di(phenyl)pentan-3-one",34397,DTXSID10202250,O=C(CCc1ccccc1)CCc1ccccc1,"InChI=1S/C17H18O/c18-17(13-11-15-7-3-1-4-8-15)14-12-16-9-5-2-6-10-16/h1-10H,11-14H2",JENANTGGBLOTIB-UHFFFAOYSA-N,?,,13.5,107685
107689,5405-15-2,5405-15-2,Cc1ccc(cc1)NCc1ccccc1,Benzyl-p-tolyl-amine,N-Benzyl-4-toluidine,4-methyl-N-(phenylmethyl)aniline,34401,DTXSID10202376,Cc1ccc(cc1)NCc1ccccc1,"InChI=1S/C14H15N/c1-12-7-9-14(10-8-12)15-11-13-5-3-2-4-6-13/h2-10,15H,11H2,1H3",KEVOWRWHMCBERP-UHFFFAOYSA-N,?,,19.5,107689
107694,5410-97-9,5410-97-9,[O-][N+](=O)c1cc2oc3ccccc3c2cc1,3-Nitrodibenzofuran,3-Nitrodibenzofuran,3-Nitrodibenzofuran,34405,DTXSID00202446,[O-][N+](=O)c1cc2oc3ccccc3c2cc1,InChI=1S/C12H7NO3/c14-13(15)8-5-6-10-9-3-1-2-4-11(9)16-12(10)7-8/h1-7H,UVFAHDAUVZRVCC-UHFFFAOYSA-N,?,,181.5,107694
107698,5438-19-7,5438-19-7,CCCOc1ccc(cc1)C(O)=O,4-PROPOXYBENZOIC ACID,p-Propoxybenzoic acid,4-Propoxybenzoic acid,34409,DTXSID10202750,CCCOc1ccc(cc1)C(O)=O,"InChI=1S/C10H12O3/c1-2-7-13-9-5-3-8(4-6-9)10(11)12/h3-6H,2,7H2,1H3,(H,11,12)",GDFUWFOCYZZGQU-UHFFFAOYSA-N,?,,145.0,107698
107702,5451-80-9,5451-80-9,CCCCC(=O)OCCCCCCC,"Pentanoic acid, heptyl ester",Heptyl valerate,heptyl pentanoate,34413,DTXSID2063898,CCCCC(=O)OCCCCCCC,"InChI=1S/C12H24O2/c1-3-5-7-8-9-11-14-12(13)10-6-4-2/h3-11H2,1-2H3",YJARPRLGQQFGOI-UHFFFAOYSA-N,?,,-46.4,107702
107707,5455-59-4,5455-59-4,NS(=O)(=O)c1ccccc1[N+]([O-])=O,2-NITROBENZENESULFONAMIDE,2-Nitrobenzenesulphonamide,2-(hydroxy-oxidoamino)benzenesulfonamide,34417,DTXSID30202974,NS(=O)(=O)c1ccccc1[N+]([O-])=O,"InChI=1S/C6H6N2O4S/c7-13(11,12)6-4-2-1-3-5(6)8(9)10/h1-4H,(H2,7,11,12)",GNDKYAWHEKZHPJ-UHFFFAOYSA-N,?,,191.0,107707
107711,5465-13-4,5465-13-4,Cc1c(c(C)c(C)c(c1C)[N+]([O-])=O)[N+]([O-])=O,"1,2,4,5-Tetramethyl-3,6-dinitro-benzene","1,2,4,5-Tetramethyl-3,6-dinitrobenzene","1,2,4,5-Tetramethyl-3,6-dinitrobenzene",34421,DTXSID10203106,Cc1c(c(C)c(C)c(c1C)[N+]([O-])=O)[N+]([O-])=O,InChI=1S/C10H12N2O4/c1-5-6(2)10(12(15)16)8(4)7(3)9(5)11(13)14/h1-4H3,AEPQXGFMAZTUEA-UHFFFAOYSA-N,?,,211.5,107711
107715,5470-96-2,5470-96-2,O=Cc1ccc2ccccc2[n]1,2-QUINOLINECARBOXALDEHYDE,Quinoline-2-carbaldehyde,quinoline-2-carbaldehyde,34425,DTXSID90203169,O=Cc1ccc2ccccc2[n]1,InChI=1S/C10H7NO/c12-7-9-6-5-8-3-1-2-4-10(8)11-9/h1-7H,WPYJKGWLDJECQD-UHFFFAOYSA-N,?,,71.0,107715
107719,5519-23-3,5519-23-3,CCCCCCCCCCOc1ccc(cc1)C(O)=O,"BENZOIC ACID, 4-(DECYLOXY)-",p-Decyloxybenzoic acid,4-decoxybenzoic acid,34429,DTXSID10203686,CCCCCCCCCCOc1ccc(cc1)C(O)=O,"InChI=1S/C17H26O3/c1-2-3-4-5-6-7-8-9-14-20-16-12-10-15(11-13-16)17(18)19/h10-13H,2-9,14H2,1H3,(H,18,19)",NZNICZRIRMGOFG-UHFFFAOYSA-N,?,,113.5,107719
107726,5579-92-0,NOCAS_863565,OCC(O)CN1C=C(I)C(=O)C(I)=C1,Iopydol,,,34434,DTXSID90863565,OCC(O)CN1C=C(I)C(=O)C(I)=C1,"InChI=1S/C8H9I2NO3/c9-6-2-11(1-5(13)4-12)3-7(10)8(6)14/h2-3,5,12-13H,1,4H2",TZADDXVKYWMEHX-UHFFFAOYSA-N,?,,161.0,107726
107731,5587-63-3,5587-63-3,CC1=C(CCC1(C)C)C(O)=O,"1-Cyclopentene-1-carboxylic acid, 2,3,3-trimethy","1-Cyclopentene-1-carboxylicacid, 2,3,3-trimethyl-",C9H14O2,34438,DTXSID80311500,CC1=C(CCC1(C)C)C(O)=O,"InChI=1S/C9H14O2/c1-6-7(8(10)11)4-5-9(6,2)3/h4-5H2,1-3H3,(H,10,11)",CVPXQMUHAZMTEO-UHFFFAOYSA-N,?,,135.0,107731
107736,5611-51-8,5611-51-8,CC(C)(C)CC(=O)OCC(=O)[C@@]12OC(C)(C)O[C@@H]1C[C@H]1[C@@H]3CCC4=CC(=O)C=C[C@]4(C)[C@@]3(F)[C@@H](O)C[C@]21C,TRIAMCINOLONE HEXACETONIDE,Triamcinolone hexacetonide,"2-[(4aS,4bR,5S,6aS,6bS,9aR,10aS,10bS)-4b-fluoro-5-hydroxy-4a,6a,8,8-tetramethyl-2-oxo-2,4a,4b,5,6,6a,9a,10,10a,10b,11,12-dodecahydro-6bH-naphtho[2',1':4,5]indeno[1,2-d][1,3]dioxol-6b-yl]-2-oxoethyl 3,3-dimethylbutanoate",34442,DTXSID0048634,CC(C)(C)CC(=O)OCC(=O)C12OC(C)(C)OC1CC1C3CCC4=CC(=O)C=CC4(C)C3(F)C(O)CC21C,"InChI=1S/C30H41FO7/c1-25(2,3)15-24(35)36-16-22(34)30-23(37-26(4,5)38-30)13-20-19-9-8-17-12-18(32)10-11-27(17,6)29(19,31)21(33)14-28(20,30)7/h10-12,19-21,23,33H,8-9,13-16H2,1-7H3",TZIZWYVVGLXXFV-UHFFFAOYSA-N,?,,295.0,107736
107740,5661-71-2,5661-71-2,C1CCCCCCCN1,"1H-AZONINE, OCTAHYDRO-",Perhydroazonine,Azonane,34446,DTXSID00205179,C1CCCCCCCN1,"InChI=1S/C8H17N/c1-2-4-6-8-9-7-5-3-1/h9H,1-8H2",NRHDCQLCSOWVTF-UHFFFAOYSA-N,?,,-19.0,107740
107744,5675-51-4,5675-51-4,OCCCCCCCCCCCCO,"1,12-DODECANEDIOL","1,12-Dodecanediol","Dodecane-1,12-diol",34450,DTXSID1074919,OCCCCCCCCCCCCO,"InChI=1S/C12H26O2/c13-11-9-7-5-3-1-2-4-6-8-10-12-14/h13-14H,1-12H2",GHLKSLMMWAKNBM-UHFFFAOYSA-N,?,,81.3,107744
107749,5697-56-3,5697-56-3,CC1(C)[C@H](CC[C@@]2(C)[C@H]1CC[C@]1(C)[C@@H]2C(=O)C=C2[C@@H]3C[C@](C)(CC[C@]3(C)CC[C@@]12C)C(O)=O)OC(=O)CCC(O)=O,Carbenoxolone,Carbenoxolone,(3beta)-3-[(3-carboxypropanoyl)oxy]-11-oxoolean-12-en-30-oic acid,34454,DTXSID4022733,CC1(C)C(CCC2(C)C1CCC1(C)C2C(=O)C=C2C3CC(C)(CCC3(C)CCC12C)C(O)=O)OC(=O)CCC(O)=O,"InChI=1S/C34H50O7/c1-29(2)23-10-13-34(7)27(32(23,5)12-11-24(29)41-26(38)9-8-25(36)37)22(35)18-20-21-19-31(4,28(39)40)15-14-30(21,3)16-17-33(20,34)6/h18,21,23-24,27H,8-17,19H2,1-7H3,(H,36,37)(H,39,40)",OBZHEBDUNPOCJG-UHFFFAOYSA-N,?,,292.5,107749
107753,5728-52-9,5728-52-9,OC(=O)Cc1ccc(cc1)-c1ccccc1,"[1,1'-BIPHENYL]-4-ACETIC ACID",Felbinac,biphenyl-4-ylacetic acid,34458,DTXSID0045389,OC(=O)Cc1ccc(cc1)-c1ccccc1,"InChI=1S/C14H12O2/c15-14(16)10-11-6-8-13(9-7-11)12-4-2-1-3-5-12/h1-9H,10H2,(H,15,16)",QRZAKQDHEVVFRX-UHFFFAOYSA-N,?,,160.5,107753