ChemID,source_casrn,CAS,SMILES,NAME,preferred_name,iupac,MPID,dsstox_substance_id,Canonical_QSARr,InChI_Code_QSARr,InChI Key_QSARr,Salt_Solvent,Salt_Solvent_ID,MP,ID
107176,3229-00-3,3229-00-3,BrCC(CBr)(CBr)CBr,"PROPANE, 1,3-DIBROMO-2,2-BIS(BROMOMETHYL)-","Propane, 1,3-dibromo-2,2-bis(bromomethyl)-","1,3-Dibromo-2,2-bis(bromomethyl)propane",33931,DTXSID1062916,BrCC(CBr)(CBr)CBr,"InChI=1S/C5H8Br4/c6-1-5(2-7,3-8)4-9/h1-4H2",OYSVBCSOQFXYHK-UHFFFAOYSA-N,?,,163.0,107176
107180,3260-87-5,3260-87-5,Cc1c(O)cccc1Cl,1-Methyl-2-chlorophenol,3-Chloro-o-cresol,3-Chloro-2-methylphenol,33935,DTXSID80186295,Cc1c(O)cccc1Cl,"InChI=1S/C7H7ClO/c1-5-6(8)3-2-4-7(5)9/h2-4,9H,1H3",WADQOGCINABPRT-UHFFFAOYSA-N,?,,86.0,107180
107185,3283-12-3,3283-12-3,CP(C)(O)=O,Dimethyl-phosphinic acid,Dimethylphosphinic acid,Dimethylphosphinic acid,33939,DTXSID00186499,CP(C)(O)=O,"InChI=1S/C2H7O2P/c1-5(2,3)4/h1-2H3,(H,3,4)",GOJNABIZVJCYFL-UHFFFAOYSA-N,?,,92.0,107185
107189,3296-90-0,3296-90-0,OCC(CBr)(CBr)CO,"1,3-PROPANEDIOL, 2,2-BIS(BRME)-","2,2-Bis(bromomethyl)-1,3-propanediol","2,2-bis(bromomethyl)propane-1,3-diol",33943,DTXSID9020164,OCC(CBr)(CBr)CO,"InChI=1S/C5H10Br2O2/c6-1-5(2-7,3-8)4-9/h8-9H,1-4H2",CHUGKEQJSLOLHL-UHFFFAOYSA-N,?,,113.0,107189
107193,3320-87-4,3320-87-4,[O-][N+](=O)c1cc(ccc1)N=C=O,"Benzene, 1-isocyanato-3-nitro-","Benzene, 1-isocyanato-3-nitro-",1-isocyanato-3-nitrobenzene,33947,DTXSID5062976,[O-][N+](=O)c1cc(ccc1)N=C=O,InChI=1S/C7H4N2O3/c10-5-8-6-2-1-3-7(4-6)9(11)12/h1-4H,GFFGYTMCNVMFAJ-UHFFFAOYSA-N,?,,51.0,107193
107197,3333-52-6,3333-52-6,CC(C)(C#N)C(C)(C)C#N,"Succinonitrile, tetramethyl",Tetramethylsuccinonitrile,tetramethylbutanedinitrile,33951,DTXSID0026125,CC(C)(C#N)C(C)(C)C#N,"InChI=1S/C8H12N2/c1-7(2,5-9)8(3,4)6-10/h1-4H3",ZVQXQPNJHRNGID-UHFFFAOYSA-N,?,,170.5,107197
107201,3347-22-6,3347-22-6,N#CC1SC2=C(SC=1C#N)C(=O)c1ccccc1C2=O,DITHIANONE,Dithianon,"5,10-dioxo-5,10-dihydronaphtho[2,3-b][1,4]dithiine-2,3-dicarbonitrile",33955,DTXSID8040270,N#CC1SC2=C(SC=1C#N)C(=O)c1ccccc1C2=O,InChI=1S/C14H4N2O2S2/c15-5-9-10(6-16)20-14-12(18)8-4-2-1-3-7(8)11(17)13(14)19-9/h1-4H,PYZSVQVRHDXQSL-UHFFFAOYSA-N,?,,225.0,107201
107206,3366-95-8,3366-95-8,Cc1[n]cc([n]1CC(C)O)[N+]([O-])=O,"1H-IMIDAZOLE-1-ETHANOL, ?,2-DIMETHYL-5-NITRO-",Secnidazole,1-(2-methyl-5-nitro-1H-imidazol-1-yl)propan-2-ol,33959,DTXSID3045934,Cc1[n]cc([n]1CC(C)O)[N+]([O-])=O,"InChI=1S/C7H11N3O3/c1-5(11)4-9-6(2)8-3-7(9)10(12)13/h3,5,11H,4H2,1-2H3",KPQZUUQMTUIKBP-UHFFFAOYSA-N,?,,76.0,107206
107210,3384-04-1,3384-04-1,ClCCCOc1ccccc1,(3-Chloro-propoxy)-benzene,(3-Chloropropoxy)benzene,3-chloropropoxybenzene,33963,DTXSID20187483,ClCCCOc1ccccc1,"InChI=1S/C9H11ClO/c10-7-4-8-11-9-5-2-1-3-6-9/h1-3,5-6H,4,7-8H2",AZXLOLRTEJEZHJ-UHFFFAOYSA-N,?,,12.0,107210
107214,3402-74-2,3402-74-2,Cc1ccc(cc1)Oc1ccc(cc1)[N+]([O-])=O,4-Methyl-4'-nitrodiphenyl ether,p-(p-Nitrophenoxy)toluene,1-methyl-4-(4-nitrophenoxy)benzene,33967,DTXSID30187631,Cc1ccc(cc1)Oc1ccc(cc1)[N+]([O-])=O,"InChI=1S/C13H11NO3/c1-10-2-6-12(7-3-10)17-13-8-4-11(5-9-13)14(15)16/h2-9H,1H3",OCIIHACECRRKPN-UHFFFAOYSA-N,?,,69.0,107214
107218,3416-05-5,3416-05-5,CC1=CN([C@H]2CC[C@@H](CO)O2)C(=O)NC1=O,"THYMIDINE, 3'-DEOXY-","2',3'-Dideoxythymidine","1-[(2R,5S)-5-(hydroxymethyl)oxolan-2-yl]-5-methylpyrimidine-2,4-dione",33971,DTXSID60187760,CC1=CN(C2CCC(CO)O2)C(=O)NC1=O,"InChI=1S/C10H14N2O4/c1-6-4-12(10(15)11-9(6)14)8-3-2-7(5-13)16-8/h4,7-8,13H,2-3,5H2,1H3,(H,11,14,15)",XKKCQTLDIPIRQD-UHFFFAOYSA-N,?,,155.5,107218
107225,3433-80-5,3433-80-5,Brc1ccccc1CBr,"Benzene, 1-bromo-2-(bromomethyl)-",2-Bromobenzyl bromide,1-bromo-2-(bromomethyl)benzene,33975,DTXSID0063022,Brc1ccccc1CBr,"InChI=1S/C7H6Br2/c8-5-6-3-1-2-4-7(6)9/h1-4H,5H2",LZSYGJNFCREHMD-UHFFFAOYSA-N,?,,31.0,107225
107230,3440-02-6,3440-02-6,C[Si](C)(Oc1ccccc1)Oc1ccccc1,DIMETHYLDIPHENOXYSILANE,"Silane, dimethyldiphenoxy-",dimethyl-bis(phenoxy)silane,33979,DTXSID4073962,C[Si](C)(Oc1ccccc1)Oc1ccccc1,"InChI=1S/C14H16O2Si/c1-17(2,15-13-9-5-3-6-10-13)16-14-11-7-4-8-12-14/h3-12H,1-2H3",SWLVAJXQIOKFSJ-UHFFFAOYSA-N,?,,-23.0,107230
107234,3452-09-3,3452-09-3,CCCCCCCC#C,1-NONYNE,1-Nonyne,non-1-yne,33983,DTXSID4063036,CCCCCCCC#C,"InChI=1S/C9H16/c1-3-5-7-9-8-6-4-2/h1H,4-9H2,2H3",OSSQSXOTMIGBCF-UHFFFAOYSA-N,?,,-50.0,107234
107239,,3463-92-1,C[C@@H]1N[C@@H]2CCCCCCCC(=O)O[C@H]3CC[C@@H](CCCCCCCC(=O)O[C@H]1CC2)N[C@H]3C,Carpaine,,,33987,,CC1NC2CCCCCCCC(=O)OC3CCC(CCCCCCCC(=O)OC1CC2)NC3C,"InChI=1S/C28H50N2O4/c1-21-25-19-17-23(29-21)13-9-5-3-8-12-16-28(32)34-26-20-18-24(30-22(26)2)14-10-6-4-7-11-15-27(31)33-25/h21-26,29-30H,3-20H2,1-2H3",AMSCMASJCYVAIF-UHFFFAOYSA-N,?,,121.0,107239
107243,3481-20-7,3481-20-7,Nc1c(Cl)c(Cl)cc(Cl)c1Cl,"2,3,5,6-TETRACHLOROANILINE","2,3,5,6-Tetrachloroaniline","2,3,5,6-tetrachloroaniline",33991,DTXSID2022208,Nc1c(Cl)c(Cl)cc(Cl)c1Cl,"InChI=1S/C6H3Cl4N/c7-2-1-3(8)5(10)6(11)4(2)9/h1H,11H2",YTDHEFNWWHSXSU-UHFFFAOYSA-N,?,,107.0,107243
107247,3485-62-9,3485-62-9,[Br-].C[N+]12CC(OC(=O)C(O)(c3ccccc3)c3ccccc3)C(CC1)CC2,Clidinium Bromide,Clidinium bromide,3-{[hydroxy(diphenyl)acetyl]oxy}-1-methyl-1-azoniabicyclo[2.2.2]octane bromide,33995,DTXSID7022835,C[N+]12CC(OC(=O)C(O)(c3ccccc3)c3ccccc3)C(CC1)CC2,"InChI=1S/C22H26NO3/c1-23-14-12-17(13-15-23)20(16-23)26-21(24)22(25,18-8-4-2-5-9-18)19-10-6-3-7-11-19/h2-11,17,20,25H,12-16H2,1H3/q+1",HOOSGZJRQIVJSZ-UHFFFAOYSA-N,[Br-],1731.0,240.5,107247
107251,3511-16-8,3511-16-8,CC1(C)S[C@@H]2[C@@H](C(=O)N2[C@H]1C(O)=O)N1C(=O)C(NC1(C)C)c1ccccc1,Hetacillin,Hetacillin,"(2S,5R,6R)-6-(2,2-dimethyl-5-oxo-4-phenylimidazolidin-1-yl)-3,3-dimethyl-7-oxo-4-thia-1-azabicyclo[3.2.0]heptane-2-carboxylic acid",33999,DTXSID4023121,CC1(C)SC2C(C(=O)N2C1C(O)=O)N1C(=O)C(NC1(C)C)c1ccccc1,"InChI=1S/C19H23N3O4S/c1-18(2)13(17(25)26)21-15(24)12(16(21)27-18)22-14(23)11(20-19(22,3)4)10-8-6-5-7-9-10/h5-9,11-13,16,20H,1-4H3,(H,25,26)",DXVUYOAEDJXBPY-UHFFFAOYSA-N,?,,190.0,107251
107255,3524-75-2,3524-75-2,C=CCC1CCCC1,"CYCLOPENTANE, 2-PROPENYL-",3-Cyclopentylpropene,prop-2-enylcyclopentane,34003,DTXSID20188733,C=CCC1CCCC1,"InChI=1S/C8H14/c1-2-5-8-6-3-4-7-8/h2,8H,1,3-7H2",NHIDGVQVYHCGEK-UHFFFAOYSA-N,?,,-110.7,107255
107259,3544-24-9,3544-24-9,Nc1cccc(c1)C(N)=O,"BENZAMIDE, 3-AMINO-",3-Aminobenzamide,3-Aminobenzamide,34007,DTXSID90188922,Nc1cccc(c1)C(N)=O,"InChI=1S/C7H8N2O/c8-6-3-1-2-5(4-6)7(9)10/h1-4H,8H2,(H2,9,10)",GSCPDZHWVNUUFI-UHFFFAOYSA-N,?,,115.5,107259
107263,3547-04-4,3547-04-4,CC(c1ccc(Cl)cc1)c1ccc(Cl)cc1,DDE,"Benzene, 1,1'-ethylidenebis(4-chloro-",1-chloro-4-[1-(4-chlorophenyl)ethyl]benzene,34011,DTXSID1063069,CC(c1ccc(Cl)cc1)c1ccc(Cl)cc1,"InChI=1S/C14H12Cl2/c1-10(11-2-6-13(15)7-3-11)12-4-8-14(16)9-5-12/h2-10H,1H3",KTEARTXATWOYDB-UHFFFAOYSA-N,?,,56.0,107263
107269,3563-58-4,3563-58-4,CC(C)(O)CC(C)OC(O)C(Cl)(Cl)Cl,Chlorhexadol,Chlorhexadol,"2-methyl-4-(2,2,2-trichloro-1-hydroxyethoxy)pentan-2-ol",34015,DTXSID8022795,CC(C)(O)CC(C)OC(O)C(Cl)(Cl)Cl,"InChI=1S/C8H15Cl3O3/c1-5(4-7(2,3)13)14-6(12)8(9,10)11/h5-6,12-13H,4H2,1-3H3",QVFWZNCVPCJQOP-UHFFFAOYSA-N,?,,103.0,107269
107274,3569-99-1,3569-99-1,OCNC(=O)c1ccc[n]c1,N-(Hydroxymethyl)nicotinamide,Nicoform,N-(hydroxymethyl)pyridine-3-carboxamide,34019,DTXSID20189205,OCNC(=O)c1ccc[n]c1,"InChI=1S/C7H8N2O2/c10-5-9-7(11)6-2-1-3-8-4-6/h1-4,10H,5H2,(H,9,11)",JRFKIOFLCXKVOT-UHFFFAOYSA-N,?,,141.5,107274
107278,3576-64-5,3576-64-5,[O-][N+](=O)c1ccc(cc1)Oc1ccc(CN(CCO)C(=O)C(Cl)Cl)cc1,Chlorphenoxamide,Clefamide,"2,2-dichloro-N-(2-hydroxyethyl)-N-[[4-(4-nitrophenoxy)phenyl]methyl]acetamide",34023,DTXSID30189296,[O-][N+](=O)c1ccc(cc1)Oc1ccc(CN(CCO)C(=O)C(Cl)Cl)cc1,"InChI=1S/C17H16Cl2N2O5/c18-16(19)17(23)20(9-10-22)11-12-1-5-14(6-2-12)26-15-7-3-13(4-8-15)21(24)25/h1-8,16,22H,9-11H2",ODCUSWJXZDHLKV-UHFFFAOYSA-N,?,,136.0,107278
107282,3586-12-7,3586-12-7,Nc1cc(ccc1)Oc1ccccc1,"Benzenamine, 3-phenoxy-","Benzenamine, 3-phenoxy-",3-(phenoxy)aniline,34027,DTXSID8063092,Nc1cc(ccc1)Oc1ccccc1,"InChI=1S/C12H11NO/c13-10-5-4-8-12(9-10)14-11-6-2-1-3-7-11/h1-9H,13H2",UCSYVYFGMFODMY-UHFFFAOYSA-N,?,,37.0,107282
107286,3600-95-1,3600-95-1,CC(C)=CCC[C@@H](C)C1C(=O)C=C(C)C(=O)C=1O,Perezone,,,34031,DTXSID50877865,CC(C)=CCCC(C)C1C(=O)C=C(C)C(=O)C=1O,"InChI=1S/C15H20O3/c1-9(2)6-5-7-10(3)13-12(16)8-11(4)14(17)15(13)18/h6,8,10,18H,5,7H2,1-4H3",JZXORCGMYQZBBQ-UHFFFAOYSA-N,?,,103.5,107286
107290,3611-72-1,NOCAS_863220,OC(c1cc2ccccc2o1)c1ccc(Cl)cc1,Clobenfurol,,,34035,DTXSID70863220,OC(c1cc2ccccc2o1)c1ccc(Cl)cc1,"InChI=1S/C15H11ClO2/c16-12-7-5-10(6-8-12)15(17)14-9-11-3-1-2-4-13(11)18-14/h1-9,15,17H",KBFBRIPYVVGWRS-UHFFFAOYSA-N,?,,48.5,107290
107294,3615-24-5,3615-24-5,CN1C(C)=C(NC(C)C)C(=O)N1c1ccccc1,Ramifenazone,Ramifenazone,"1,5-dimethyl-2-phenyl-4-(propan-2-ylamino)-1,2-dihydro-3H-pyrazol-3-one",34039,DTXSID1045906,CN1C(C)=C(NC(C)C)C(=O)N1c1ccccc1,"InChI=1S/C14H19N3O/c1-10(2)15-13-11(3)16(4)17(14(13)18)12-8-6-5-7-9-12/h5-10,15H,1-4H3",XOZLRRYPUKAKMU-UHFFFAOYSA-N,?,,80.0,107294
107300,3634-92-2,3634-92-2,CCCCCCCCCCCCCCCCCC(=O)OCCC,Octadecanoic acid propyl ester,Propyl stearate,propyl octadecanoate,34045,DTXSID50189874,CCCCCCCCCCCCCCCCCC(=O)OCCC,"InChI=1S/C21H42O2/c1-3-5-6-7-8-9-10-11-12-13-14-15-16-17-18-19-21(22)23-20-4-2/h3-20H2,1-2H3",BTAXGNQLYFDKEF-UHFFFAOYSA-N,?,,28.9,107300
107304,3658-77-3,3658-77-3,CC1OC(C)C(=O)C=1O,Furaneol,"4-Hydroxy-2,5-dimethyl-3(2H)furanone","4-hydroxy-2,5-dimethylfuran-3(2H)-one",34049,DTXSID0041517,CC1OC(C)C(=O)C=1O,"InChI=1S/C6H8O3/c1-3-5(7)6(8)4(2)9-3/h3,8H,1-2H3",INAXVXBDKKUCGI-UHFFFAOYSA-N,?,,80.5,107304
107308,3678-62-4,3678-62-4,Cc1cc(Cl)[n]cc1,"PYRIDINE, 2-CHLORO-4-METHYL-",2-Chloro-4-methylpyridine,2-Chloro-4-methylpyridine,34053,DTXSID30190241,Cc1cc(Cl)[n]cc1,"InChI=1S/C6H6ClN/c1-5-2-3-8-6(7)4-5/h2-4H,1H3",MZVSTDHRRYQFGI-UHFFFAOYSA-N,?,,115.0,107308
107312,3688-65-1,3688-65-1,COc1ccc2C[C@@H]3[C@@H]4C=C[C@H](O)[C@@H]5Oc1c2[C@]45CC[N@+]3(C)[O-],Codeine N-Oxide,Codeine N-oxide,,34057,DTXSID00190359,COc1ccc2CC3C4C=CC(O)C5Oc1c2C45CC[N+]3(C)[O-],"InChI=1S/C18H21NO4/c1-19(21)8-7-18-11-4-5-13(20)17(18)23-16-14(22-2)6-3-10(15(16)18)9-12(11)19/h3-6,11-13,17,20H,7-9H2,1-2H3",BDLSDHWCOJPHIE-UHFFFAOYSA-N,?,,231.5,107312
107316,3691-35-8,3691-35-8,O=C(C(c1ccc(Cl)cc1)c1ccccc1)C1C(=O)c2ccccc2C1=O,CHLOROPHACINONE,Chlorophacinone,"2-[(4-chlorophenyl)(phenyl)acetyl]-1H-indene-1,3(2H)-dione",34061,DTXSID2032348,O=C(C(c1ccc(Cl)cc1)c1ccccc1)C1C(=O)c2ccccc2C1=O,"InChI=1S/C23H15ClO3/c24-16-12-10-15(11-13-16)19(14-6-2-1-3-7-14)23(27)20-21(25)17-8-4-5-9-18(17)22(20)26/h1-13,19-20H",UDHXJZHVNHGCEC-UHFFFAOYSA-N,?,,140.0,107316
107320,3697-27-6,3697-27-6,Cc1c2c3ccccc3ccc2c2ccccc2c1C,"5,6-DIMETHYLCHRYSENE","5,6-Dimethylchrysene","5,6-DIMETHYLCHRYSENE",34065,DTXSID50190465,Cc1c2c3ccccc3ccc2c2ccccc2c1C,"InChI=1S/C20H16/c1-13-14(2)20-17-9-4-3-7-15(17)11-12-19(20)18-10-6-5-8-16(13)18/h3-12H,1-2H3",SDOJHDGZFOGOFD-UHFFFAOYSA-N,?,,129.3,107320
107325,3726-45-2,3726-45-2,CC1CCC(C)C(C)C1C,"Cyclohexane, 1,2,3,4-tetramethyl-",,,34070,DTXSID10871041,CC1CCC(C)C(C)C1C,"InChI=1S/C10H20/c1-7-5-6-8(2)10(4)9(7)3/h7-10H,5-6H2,1-4H3",OOQVBBNTNKHXSN-UHFFFAOYSA-N,?,,-75.0,107325
107329,3734-33-6,3734-33-6,Cc1cccc(C)c1NC(=O)C[N+](Cc1ccccc1)(CC)CC.[O-]C(=O)c1ccccc1,Denatonium Benzoate,Denatonium benzoate,"N-benzyl-2-[(2,6-dimethylphenyl)amino]-N,N-diethyl-2-oxoethanaminium benzoate",34073,DTXSID8034376,Cc1cccc(C)c1NC(=O)C[N+](Cc1ccccc1)(CC)CC,"InChI=1S/C21H28N2O/c1-5-23(6-2,15-19-13-8-7-9-14-19)16-20(24)22-21-17(3)11-10-12-18(21)4/h7-14H,5-6,15-16H2,1-4H3/p+1",ZFQMTVNLDNXRNQ-UHFFFAOYSA-O,C1=CC=CC(C([O-])=O)=C1,12.0,168.0,107329
107334,3739-38-6,3739-38-6,OC(=O)c1cc(ccc1)Oc1ccccc1,M-PHENOXYBENZOIC ACID,3-Phenoxybenzoic acid,3-phenoxybenzoic acid,34077,DTXSID1038321,OC(=O)c1cc(ccc1)Oc1ccccc1,"InChI=1S/C13H10O3/c14-13(15)10-5-4-8-12(9-10)16-11-6-2-1-3-7-11/h1-9H,(H,14,15)",NXTDJHZGHOFSQG-UHFFFAOYSA-N,?,,149.5,107334
107338,3744-02-3,3744-02-3,CC(=O)CC(C)=C,ISOMESITYL OXIDE,"4-Penten-2-one, 4-methyl-",4-methylpent-4-en-2-one,34081,DTXSID4073966,CC(=O)CC(C)=C,"InChI=1S/C6H10O/c1-5(2)4-6(3)7/h1,4H2,2-3H3",VADUDTKCGJKNDY-UHFFFAOYSA-N,?,,-72.6,107338
107342,3766-81-2,3766-81-2,CCC(C)c1ccccc1OC(=O)NC,N-METHYL O-SEC-BUTYL PHENYL CARBAMATE,Fenobucarb,2-sec-butylphenyl methylcarbamate,34085,DTXSID4058077,CCC(C)c1ccccc1OC(=O)NC,"InChI=1S/C12H17NO2/c1-4-9(2)10-7-5-6-8-11(10)15-12(14)13-3/h5-9H,4H2,1-3H3,(H,13,14)",DIRFUJHNVNOBMY-UHFFFAOYSA-N,?,,31.5,107342
107347,3769-57-1,3769-57-1,Cc1cc(ccc1N=Nc1ccc(cc1Cl)[N+]([O-])=O)N(CCO)CCO,DISPERSE RED 5,"Ethanol, 2,2'-[[4-[(2-chloro-4-nitrophenyl)azo]-3-methylphenyl]imino]bis-",2-[[4-(2-chloro-4-nitrophenyl)diazenyl-3-methylphenyl]-(2-hydroxyethyl)amino]ethanol,34090,DTXSID3063178,Cc1cc(ccc1N=Nc1ccc(cc1Cl)[N+]([O-])=O)N(CCO)CCO,"InChI=1S/C17H19ClN4O4/c1-12-10-13(21(6-8-23)7-9-24)2-4-16(12)19-20-17-5-3-14(22(25)26)11-15(17)18/h2-5,10-11,23-24H,6-9H2,1H3/b20-19+",NBEXAEYARUBYDV-FMQUCBEESA-N,?,,192.0,107347
107351,3785-21-5,3785-21-5,Cc1cccc(Cl)c1NC(=O)CNCCCC,Butanilicaine,Butanilicaine,2-butylamino-N-(2-chloro-6-methylphenyl)acetamide,34094,DTXSID90191279,Cc1cccc(Cl)c1NC(=O)CNCCCC,"InChI=1S/C13H19ClN2O/c1-3-4-8-15-9-12(17)16-13-10(2)6-5-7-11(13)14/h5-7,15H,3-4,8-9H2,1-2H3,(H,16,17)",VWYQKFLLGRBICZ-UHFFFAOYSA-N,?,,45.5,107351
107355,3810-35-3,3810-35-3,[O-][N+](=O)c1c[n]c(NC(=O)c2ccc[s]2)[s]1,Tenonitrozole,Tenonitrozole,"N-(5-nitro-1,3-thiazol-2-yl)thiophene-2-carboxamide",34098,DTXSID5046277,[O-][N+](=O)c1c[n]c(NC(=O)c2ccc[s]2)[s]1,"InChI=1S/C8H5N3O3S2/c12-7(5-2-1-3-15-5)10-8-9-4-6(16-8)11(13)14/h1-4H,(H,9,10,12)",ZLOXYEZYWCTXHU-UHFFFAOYSA-N,?,,255.5,107355
107360,3850-30-4,66228-31-7,C[C@@H](N)C(C)(C)C,"2-Butanamine, 3,3-dimethyl-","(R)-(-)-3,3-Dimethyl-2-butylamine, (S)-(+)-3,3-Dimethyl-2-butylamine",C6H15N,34102,DTXSID10415964,CC(N)C(C)(C)C,"InChI=1S/C6H15N/c1-5(7)6(2,3)4/h5H,7H2,1-4H3",DXSUORGKJZADET-UHFFFAOYSA-N,?,,-20.0,107360
107364,3861-47-0,3861-47-0,CCCCCCCC(=O)Oc1c(I)cc(cc1I)C#N,IOXYNIL OCTANOATE,Ioxynil octanoate,"4-cyano-2,6-diiodophenyl octanoate",34106,DTXSID8042054,CCCCCCCC(=O)Oc1c(I)cc(cc1I)C#N,"InChI=1S/C15H17I2NO2/c1-2-3-4-5-6-7-14(19)20-15-12(16)8-11(10-18)9-13(15)17/h8-9H,2-7H2,1H3",QBEXFUOWUYCXNI-UHFFFAOYSA-N,?,,59.5,107364
107368,3877-15-4,3877-15-4,CCCSC,N-PROPYLMETHYLSULFIDE,"Propane, 1-(methylthio)-",1-methylsulfanylpropane,34110,DTXSID9073969,CCCSC,"InChI=1S/C4H10S/c1-3-4-5-2/h3-4H2,1-2H3",ZOASGOXWEHUTKZ-UHFFFAOYSA-N,?,,-113.0,107368
107372,3900-31-0,3900-31-0,CN1C(=O)CN=C(c2ccccc2F)c2cc(Cl)ccc12,FLUDIAZEPAM,Fludiazepam,"7-chloro-5-(2-fluorophenyl)-1-methyl-3H-1,4-benzodiazepin-2-one",34114,DTXSID00192277,CN1C(=O)CN=C(c2ccccc2F)c2cc(Cl)ccc12,"InChI=1S/C16H12ClFN2O/c1-20-14-7-6-10(17)8-12(14)16(19-9-15(20)21)11-4-2-3-5-13(11)18/h2-8H,9H2,1H3",ROYOYTLGDLIGBX-UHFFFAOYSA-N,?,,296.0,107372
107377,3937-56-2,3937-56-2,OCCCCCCCCCO,"1,9-Nonanediol","1,9-Nonanediol","nonane-1,9-diol",34118,DTXSID5063237,OCCCCCCCCCO,"InChI=1S/C9H20O2/c10-8-6-4-2-1-3-5-7-9-11/h10-11H,1-9H2",ALVZNPYWJMLXKV-UHFFFAOYSA-N,?,,45.8,107377
107381,3953-10-4,3953-10-4,CCC(COC(=O)C=C)CC,2-ETHYLBUTYL ACRYLATE,2-Ethylbutyl acrylate,2-ethylbutyl prop-2-enoate,34122,DTXSID9063241,CCC(COC(=O)C=C)CC,"InChI=1S/C9H16O2/c1-4-8(5-2)7-11-9(10)6-3/h6,8H,3-5,7H2,1-2H3",JGRXEBOFWPLEAV-UHFFFAOYSA-N,?,,-70.0,107381
107385,3964-56-5,3964-56-5,Oc1ccc(Br)cc1Cl,4-BROMO-2-CHLOROPHENOL,4-Bromo-2-chlorophenol,4-BROMO-2-CHLOROPHENOL,34126,DTXSID30192745,Oc1ccc(Br)cc1Cl,"InChI=1S/C6H4BrClO/c7-4-1-2-6(9)5(8)3-4/h1-3,9H",VIBJPUXLAKVICD-UHFFFAOYSA-N,?,,50.5,107385
107389,3970-62-5,3970-62-5,CCC(O)C(C)(C)C,"2,2-DIMETHYL-3-PENTANOL","2,2-Dimethyl-3-pentanol","2,2-dimethylpentan-3-ol",34130,DTXSID0032813,CCC(O)C(C)(C)C,"InChI=1S/C7H16O/c1-5-6(8)7(2,3)4/h6,8H,5H2,1-4H3",HMSVXZJWPVIVIV-UHFFFAOYSA-N,?,,-5.0,107389
107393,3978-81-2,3978-81-2,CC(C)(C)c1cc[n]cc1,4-(TERT-BUTYL)PYRIDINE,4-tert-Butylpyridine,4-tert-Butylpyridine,34134,DTXSID20192855,CC(C)(C)c1cc[n]cc1,"InChI=1S/C9H13N/c1-9(2,3)8-4-6-10-7-5-8/h4-7H,1-3H3",YSHMQTRICHYLGF-UHFFFAOYSA-N,?,,-41.0,107393
107398,4005-51-0,4005-51-0,Nc1[n][n]c[s]1,"2-AMINO-1,3,4-THIADIAZOLE","2-Amino-1,3,4-thiadiazole","1,3,4-Thiadiazol-2-amine",34138,DTXSID50193113,Nc1[n][n]c[s]1,"InChI=1S/C2H3N3S/c3-2-5-4-1-6-2/h1H,(H2,3,5)",QUKGLNCXGVWCJX-UHFFFAOYSA-N,?,,191.0,107398
107402,4028-15-3,4028-15-3,[O-][N+](=O)C1(CCCCC1)[N+]([O-])=O,"1,1-Dinitrocyclohexane","Cyclohexane, 1,1-dinitro-","1,1-Dinitrocyclohexane",34142,DTXSID4075241,[O-][N+](=O)C1(CCCCC1)[N+]([O-])=O,InChI=1S/C6H10N2O4/c9-7(10)6(8(11)12)4-2-1-3-5-6/h1-5H2,OWJVEZJJRYZWNI-UHFFFAOYSA-N,?,,36.0,107402
107406,4048-33-3,4048-33-3,NCCCCCCO,"Hexanol, 6-amino-","1-Hexanol, 6-amino-",6-Aminohexan-1-ol,34146,DTXSID9075242,NCCCCCCO,"InChI=1S/C6H15NO/c7-5-3-1-2-4-6-8/h8H,1-7H2",SUTWPJHCRAITLU-UHFFFAOYSA-N,?,,57.0,107406
107411,4065-45-6,4065-45-6,COc1cc(O)c(cc1S(O)(=O)=O)C(=O)c1ccccc1,5-BENZOYL-4-HYDROXY-2-METHOXY-BENZENESULFONIC AC,Sulisobenzone,5-benzoyl-4-hydroxy-2-methoxybenzenesulfonic acid,34150,DTXSID2042436,COc1cc(O)c(cc1S(O)(=O)=O)C(=O)c1ccccc1,"InChI=1S/C14H12O6S/c1-20-12-8-11(15)10(7-13(12)21(17,18)19)14(16)9-5-3-2-4-6-9/h2-8,15H,1H3,(H,17,18,19)",CXVGEDCSTKKODG-UHFFFAOYSA-N,?,,145.0,107411
107415,4096-20-2,4096-20-2,C1CCCCN1c1ccccc1,N-PHENYLPIPERIDINE,"Piperidine, 1-phenyl-",1-Phenylpiperidine,34154,DTXSID4063294,C1CCCCN1c1ccccc1,"InChI=1S/C11H15N/c1-3-7-11(8-4-1)12-9-5-2-6-10-12/h1,3-4,7-8H,2,5-6,9-10H2",LLSKXGRDUPMXLC-UHFFFAOYSA-N,?,,4.7,107415
107420,4101-68-2,NOCAS_871054,CCCCCCCCC(Br)CBr,"1,2-DIBROMODECANE","1,2-DIBROMODECANE",C10H20Br2,34158,DTXSID40871054,CCCCCCCCC(Br)CBr,"InChI=1S/C10H20Br2/c1-2-3-4-5-6-7-8-10(12)9-11/h10H,2-9H2,1H3",XBRBOTTWTQOCJH-UHFFFAOYSA-N,?,,28.0,107420
107424,4114-31-2,4114-31-2,CCOC(=O)NN,"Hydrazinecarboxylic acid, ethyl ester","Hydrazinecarboxylic acid, ethyl ester",ethyl N-aminocarbamate,34162,DTXSID1063308,CCOC(=O)NN,"InChI=1S/C3H8N2O2/c1-2-7-3(6)5-4/h2,4H2,1H3,(H,5,6)",VYSYZMNJHYOXGN-UHFFFAOYSA-N,?,,46.0,107424
107429,4147-51-7,4147-51-7,CCSc1[n]c(NC(C)C)[n]c(NC(C)C)[n]1,DIPROPETRYNE,Dipropetryn,"6-(ethylsulfanyl)-N,N'-di(propan-2-yl)-1,3,5-triazine-2,4-diamine",34167,DTXSID9037533,CCSc1[n]c(NC(C)C)[n]c(NC(C)C)[n]1,"InChI=1S/C11H21N5S/c1-6-17-11-15-9(12-7(2)3)14-10(16-11)13-8(4)5/h7-8H,6H2,1-5H3,(H2,12,13,14,15,16)",NPWMZOGDXOFZIN-UHFFFAOYSA-N,?,,105.0,107429
107433,4163-15-9,4163-15-9,Oc1ccc2C[C@@H]3[C@@H]4CCCC[C@]4(CCN3CC3CC3)c2c1,Cyclorphan,,,34171,DTXSID50878519,Oc1ccc2CC3C4CCCCC4(CCN3CC3CC3)c2c1,"InChI=1S/C20H27NO/c22-16-7-6-15-11-19-17-3-1-2-8-20(17,18(15)12-16)9-10-21(19)13-14-4-5-14/h6-7,12,14,17,19,22H,1-5,8-11,13H2",NLBUEDSBXVNAPB-UHFFFAOYSA-N,?,,188.0,107433
107438,4173-44-8,NOCAS_871057,CC(=O)C=CC=Cc1ccccc1,"6-Phenyl-hexa-3,5-dien-2-one",,,34176,DTXSID20871057,CC(=O)C=CC=Cc1ccccc1,"InChI=1S/C12H12O/c1-11(13)7-5-6-10-12-8-3-2-4-9-12/h2-10H,1H3/b7-5+,10-6+",PRNUCJKOERXADE-YLNKAEQOSA-N,?,,68.0,107438
107443,4200-95-7,4200-95-7,CCCCCCCCCCCCCCCCCN,1-Heptadecanamine,Heptadecylamine,heptadecan-1-amine,34181,DTXSID1063350,CCCCCCCCCCCCCCCCCN,"InChI=1S/C17H37N/c1-2-3-4-5-6-7-8-9-10-11-12-13-14-15-16-17-18/h2-18H2,1H3",KAJZYANLDWUIES-UHFFFAOYSA-N,?,,49.0,107443
107447,4214-76-0,4214-76-0,Nc1ccc(c[n]1)[N+]([O-])=O,"2-PYRIDINAMINE, 5-NITRO-","2-Pyridinamine, 5-nitro-",5-nitropyridin-2-amine,34185,DTXSID6063357,Nc1ccc(c[n]1)[N+]([O-])=O,"InChI=1S/C5H5N3O2/c6-5-2-1-4(3-7-5)8(9)10/h1-3H,(H2,6,7)",UGSBCCAHDVCHGI-UHFFFAOYSA-N,?,,187.0,107447
107452,4228-00-6,4228-00-6,CCCCCCCCCCCC(=O)Oc1ccccc1,"Lauric acid, phenyl ester",Phenyl laurate,phenyl dodecanoate,34189,DTXSID0063367,CCCCCCCCCCCC(=O)Oc1ccccc1,"InChI=1S/C18H28O2/c1-2-3-4-5-6-7-8-9-13-16-18(19)20-17-14-11-10-12-15-17/h10-12,14-15H,2-9,13,16H2,1H3",ZPORCTAUIXXZAI-UHFFFAOYSA-N,?,,24.5,107452
107458,4253-34-3,4253-34-3,C[Si](OC(C)=O)(OC(C)=O)OC(C)=O,Triacetoxy-methylsilane,Methylsilanetriyl triacetate,methylsilanetriyl triacetate,34193,DTXSID0027565,C[Si](OC(C)=O)(OC(C)=O)OC(C)=O,"InChI=1S/C7H12O6Si/c1-5(8)11-14(4,12-6(2)9)13-7(3)10/h1-4H3",TVJPBVNWVPUZBM-UHFFFAOYSA-N,?,,40.5,107458
107462,4259-43-2,NOCAS_863351,FC(F)(F)C(F)(F)C(Cl)(Cl)Cl,"1,1,1-trichloro-2,2,3,3,3-pentafluoropropane",,,34197,DTXSID20863351,FC(F)(F)C(F)(F)C(Cl)(Cl)Cl,"InChI=1S/C3Cl3F5/c4-2(5,6)1(7,8)3(9,10)11",HJRXHKBZNQULJQ-UHFFFAOYSA-N,?,,-80.0,107462