ChemID,source_casrn,CAS,SMILES,NAME,preferred_name,iupac,MPID,dsstox_substance_id,Canonical_QSARr,InChI_Code_QSARr,InChI Key_QSARr,Salt_Solvent,Salt_Solvent_ID,MP,ID
101143,92-30-8,92-30-8,FC(F)(F)c1cc2Nc3ccccc3Sc2cc1,Trifluoromethylphenothiazine,"10H-Phenothiazine, 2-(trifluoromethyl)-",2-(Trifluoromethyl)-10H-phenothiazine,28443,DTXSID3059050,FC(F)(F)c1cc2Nc3ccccc3Sc2cc1,"InChI=1S/C13H8F3NS/c14-13(15,16)8-5-6-12-10(7-8)17-9-3-1-2-4-11(9)18-12/h1-7,17H",RKGYJVASTMCSHZ-UHFFFAOYSA-N,?,,189.0,101143
101144,92-35-3,92-35-3,CC1=C(CCO)SC2=Nc3[n]c(C)[n]cc3CN12,"5H-Thiachromine-8-ethanol, 2,7-dimethyl-","5H-Pyrimido[4,5-d]thiazolo[3,2-a]pyrimidine-8-ethanol, 2,7-dimethyl-",,28444,DTXSID3059052,CC1=C(CCO)SC2=Nc3[n]c(C)[n]cc3CN12,"InChI=1S/C12H14N4OS/c1-7-10(3-4-17)18-12-15-11-9(6-16(7)12)5-13-8(2)14-11/h5,17H,3-4,6H2,1-2H3",GTQXMAIXVFLYKF-UHFFFAOYSA-N,?,,228.8,101144
101145,92-36-4,92-36-4,Cc1cc2[s]c([n]c2cc1)-c1ccc(N)cc1,"Benzenamine, 4-(6-methyl-2-benzothiazolyl)-",Dehydrothio-4-toluidine,"4-(6-methyl-1,3-benzothiazol-2-yl)aniline",28445,DTXSID5024502,Cc1cc2[s]c([n]c2cc1)-c1ccc(N)cc1,"InChI=1S/C14H12N2S/c1-9-2-7-12-13(8-9)17-14(16-12)10-3-5-11(15)6-4-10/h2-8H,15H2,1H3",XRTJYEIMLZALBD-UHFFFAOYSA-N,?,,194.8,101145
101147,92-43-3,92-43-3,O=C1CCN(N1)c1ccccc1,1-PHENYL-3-PYRAZOLIDINONE,"3-Pyrazolidinone,1-phenyl-",1-phenylpyrazolidin-3-one,28447,DTXSID1049433,O=C1CCN(N1)c1ccccc1,"InChI=1S/C9H10N2O/c12-9-6-7-11(10-9)8-4-2-1-3-5-8/h1-5H,6-7H2,(H,10,12)",CMCWWLVWPDLCRM-UHFFFAOYSA-N,?,,126.0,101147
101148,92-44-4,92-44-4,Oc1cc2ccccc2cc1O,"2,3-NAPHTHALENEDIOL","2,3-Dihydroxynaphthalene","naphthalene-2,3-diol",28448,DTXSID2043903,Oc1cc2ccccc2cc1O,"InChI=1S/C10H8O2/c11-9-5-7-3-1-2-4-8(7)6-10(9)12/h1-6,11-12H",JRNGUTKWMSBIBF-UHFFFAOYSA-N,?,,162.0,101148
101149,92-48-8,92-48-8,Cc1cc2C=CC(=O)Oc2cc1,"2H-1-Benzopyran-2-one, 6-methyl-",6-Methyl coumarin,6-methyl-2H-chromen-2-one,28449,DTXSID9025588,Cc1cc2C=CC(=O)Oc2cc1,"InChI=1S/C10H8O2/c1-7-2-4-9-8(6-7)3-5-10(11)12-9/h2-6H,1H3",FXFYOPQLGGEACP-UHFFFAOYSA-N,?,,76.5,101149
101151,92-51-3,92-51-3,C1CCCCC1C1CCCCC1,DICYCLOHEXYL,Dicyclohexyl,"1,1'-bi(cyclohexyl)",28451,DTXSID8021802,C1CCCCC1C1CCCCC1,"InChI=1S/C12H22/c1-3-7-11(8-4-1)12-9-5-2-6-10-12/h11-12H,1-10H2",WVIIMZNLDWSIRH-UHFFFAOYSA-N,?,,4.0,101151
101152,92-52-4,92-52-4,c1ccccc1-c1ccccc1,BIPHENYL,Biphenyl,biphenyl,28452,DTXSID4020161,c1ccccc1-c1ccccc1,InChI=1S/C12H10/c1-3-7-11(8-4-1)12-9-5-2-6-10-12/h1-10H,ZUOUZKKEUPVFJK-UHFFFAOYSA-N,?,,69.0,101152
101153,92-53-5,92-53-5,C1CN(CCO1)c1ccccc1,N-PHENYLMORPHOLINE,"Morpholine, 4-phenyl-",4-Phenylmorpholine,28453,DTXSID8059057,C1CN(CCO1)c1ccccc1,"InChI=1S/C10H13NO/c1-2-4-10(5-3-1)11-6-8-12-9-7-11/h1-5H,6-9H2",FHQRDEDZJIFJAL-UHFFFAOYSA-N,?,,52.5,101153
101155,92-59-1,92-59-1,CCN(Cc1ccccc1)c1ccccc1,"Benzenemethanamine, N-ethyl-N-phenyl-",N-Ethyl-N-phenyl benzylamine,N-benzyl-N-ethylaniline,28455,DTXSID0025315,CCN(Cc1ccccc1)c1ccccc1,"InChI=1S/C15H17N/c1-2-16(15-11-7-4-8-12-15)13-14-9-5-3-6-10-14/h3-12H,2,13H2,1H3",HSZCJVZRHXPCIA-UHFFFAOYSA-N,?,,35.0,101155
101156,92-61-5,92-61-5,COc1cc2C=CC(=O)Oc2cc1O,Scopoletin,Scopoletin,7-hydroxy-6-methoxychromen-2-one,28456,DTXSID0075368,COc1cc2C=CC(=O)Oc2cc1O,"InChI=1S/C10H8O4/c1-13-9-4-6-2-3-10(12)14-8(6)5-7(9)11/h2-5,11H,1H3",RODXRVNMMDRFIK-UHFFFAOYSA-N,?,,204.0,101156
101157,92-62-6,92-62-6,Nc1cc2[n]c3cc(N)ccc3cc2cc1,"3,6-DIAMINOACRIDINE",Proflavin,C13H11N3,28457,DTXSID9043776,Nc1cc2[n]c3cc(N)ccc3cc2cc1,"InChI=1S/C13H11N3/c14-10-3-1-8-5-9-2-4-11(15)7-13(9)16-12(8)6-10/h1-7H,14-15H2",WDVSHHCDHLJJJR-UHFFFAOYSA-N,?,,285.0,101157
101159,92-67-1,92-67-1,Nc1ccc(cc1)-c1ccccc1,4-AMINOBIPHENYL,4-Biphenylamine,biphenyl-4-amine,28459,DTXSID5020071,Nc1ccc(cc1)-c1ccccc1,"InChI=1S/C12H11N/c13-12-8-6-11(7-9-12)10-4-2-1-3-5-10/h1-9H,13H2",DMVOXQPQNTYEKQ-UHFFFAOYSA-N,?,,53.5,101159
101160,92-69-3,92-69-3,Oc1ccc(cc1)-c1ccccc1,P-PHENYLPHENOL,4-Phenylphenol,biphenyl-4-ol,28460,DTXSID7021152,Oc1ccc(cc1)-c1ccccc1,"InChI=1S/C12H10O/c13-12-8-6-11(7-9-12)10-4-2-1-3-5-10/h1-9,13H",YXVFYQXJAXKLAK-UHFFFAOYSA-N,?,,166.0,101160
101161,92-70-6,92-70-6,Oc1cc2ccccc2cc1C(O)=O,"2-NAPHTHALENECARBOXYLIC ACID, 3-HYDROXY-",3-Hydroxy-2-naphthoic acid,3-hydroxynaphthalene-2-carboxylic acid,28461,DTXSID3026560,Oc1cc2ccccc2cc1C(O)=O,"InChI=1S/C11H8O3/c12-10-6-8-4-2-1-3-7(8)5-9(10)11(13)14/h1-6,12H,(H,13,14)",ALKYHXVLJMQRLQ-UHFFFAOYSA-N,?,,222.5,101161
101163,92-77-3,92-77-3,Oc1cc2ccccc2cc1C(=O)Nc1ccccc1,Naphthol AS,3-Hydroxy-2-naphthanilide,3-hydroxy-N-phenyl-2-naphthamide,28463,DTXSID1052618,Oc1cc2ccccc2cc1C(=O)Nc1ccccc1,"InChI=1S/C17H13NO2/c19-16-11-13-7-5-4-6-12(13)10-15(16)17(20)18-14-8-2-1-3-9-14/h1-11,19H,(H,18,20)",JFGQHAHJWJBOPD-UHFFFAOYSA-N,?,,248.5,101163
101164,92-82-0,92-82-0,c1cccc2[n]c3ccccc3[n]c21,PHENAZINE,Phenazine,Phenazine,28464,DTXSID2059069,c1cccc2[n]c3ccccc3[n]c21,InChI=1S/C12H8N2/c1-2-6-10-9(5-1)13-11-7-3-4-8-12(11)14-10/h1-8H,PCNDJXKNXGMECE-UHFFFAOYSA-N,?,,176.5,101164
101165,92-83-1,92-83-1,C1c2ccccc2Oc2ccccc21,9H-XANTHENE,9H-Xanthene,9H-Xanthene,28465,DTXSID1059070,C1c2ccccc2Oc2ccccc21,"InChI=1S/C13H10O/c1-3-7-12-10(5-1)9-11-6-2-4-8-13(11)14-12/h1-8H,9H2",GJCOSYZMQJWQCA-UHFFFAOYSA-N,?,,100.5,101165
101167,92-85-3,92-85-3,c1cccc2Sc3ccccc3Sc21,THIANTHRENE,Thianthrene,Thianthrene,28467,DTXSID6059071,c1cccc2Sc3ccccc3Sc21,InChI=1S/C12H8S2/c1-2-6-10-9(5-1)13-11-7-3-4-8-12(11)14-10/h1-8H,GVIJJXMXTUZIOD-UHFFFAOYSA-N,?,,159.3,101167
101168,92-86-4,92-86-4,Brc1ccc(cc1)-c1ccc(Br)cc1,"4,4'-DIBROMOBIPHENYL","1,1'-Biphenyl, 4,4'-dibromo-",1-bromo-4-(4-bromophenyl)benzene,28468,DTXSID1059072,Brc1ccc(cc1)-c1ccc(Br)cc1,InChI=1S/C12H8Br2/c13-11-5-1-9(2-6-11)10-3-7-12(14)8-4-10/h1-8H,HQJQYILBCQPYBI-UHFFFAOYSA-N,?,,164.0,101168
101169,92-87-5,92-87-5,Nc1ccc(cc1)-c1ccc(N)cc1,BENZIDINE,Benzidine,"biphenyl-4,4'-diamine",28469,DTXSID2020137,Nc1ccc(cc1)-c1ccc(N)cc1,"InChI=1S/C12H12N2/c13-11-5-1-9(2-6-11)10-3-7-12(14)8-4-10/h1-8H,13-14H2",HFACYLZERDEVSX-UHFFFAOYSA-N,?,,120.0,101169
101171,92-91-1,92-91-1,CC(=O)c1ccc(cc1)-c1ccccc1,4-ACETYLBIPHENYL,4'-Acetylbiphenyl,1-(biphenyl-4-yl)ethanone,28471,DTXSID6052619,CC(=O)c1ccc(cc1)-c1ccccc1,"InChI=1S/C14H12O/c1-11(15)12-7-9-14(10-8-12)13-5-3-2-4-6-13/h2-10H,1H3",QCZZSANNLWPGEA-UHFFFAOYSA-N,?,,121.0,101171
101172,92-92-2,92-92-2,OC(=O)c1ccc(cc1)-c1ccccc1,"1,1'-BIPHENYL -4-CARBOXYLIC ACID","[1,1'-Biphenyl]-4-carboxylic acid",4-Phenylbenzoic acid,28472,DTXSID1059074,OC(=O)c1ccc(cc1)-c1ccccc1,"InChI=1S/C13H10O2/c14-13(15)12-8-6-11(7-9-12)10-4-2-1-3-5-10/h1-9H,(H,14,15)",NNJMFJSKMRYHSR-UHFFFAOYSA-N,?,,228.0,101172
101173,92-93-3,92-93-3,[O-][N+](=O)c1ccc(cc1)-c1ccccc1,P-NITROBIPHENYL,4-Nitrobiphenyl,4-nitrobiphenyl,28473,DTXSID9041522,[O-][N+](=O)c1ccc(cc1)-c1ccccc1,InChI=1S/C12H9NO2/c14-13(15)12-8-6-11(7-9-12)10-4-2-1-3-5-10/h1-9H,BAJQRLZAPXASRD-UHFFFAOYSA-N,?,,114.0,101173
101175,92-95-5,92-95-5,O=C=Nc1ccc(cc1)-c1ccccc1,p-Xenylcarbimide,4-Biphenylyl isocyanate,C13H9NO,28475,DTXSID30394186,O=C=Nc1ccc(cc1)-c1ccccc1,InChI=1S/C13H9NO/c15-10-14-13-8-6-12(7-9-13)11-4-2-1-3-5-11/h1-9H,WIRPZDICFIIBRF-UHFFFAOYSA-N,?,,56.0,101175
101176,92-99-9,92-99-9,Cc1ccc2cc(ccc2[n]1)N(C)C,"6-Quinolinamine, N,N,2-trimethyl-","6-Quinolinamine, N,N,2-trimethyl-","N,N,2-Trimethylquinolin-6-amine",28476,DTXSID6059075,Cc1ccc2cc(ccc2[n]1)N(C)C,"InChI=1S/C12H14N2/c1-9-4-5-10-8-11(14(2)3)6-7-12(10)13-9/h4-8H,1-3H3",JGRWYZQONRFIFH-UHFFFAOYSA-N,?,,101.0,101176
101177,93-01-6,93-01-6,Oc1cc2ccc(cc2cc1)S(O)(=O)=O,"2-Naphthalenesulfonic acid, 6-hydroxy-",6-Hydroxynaphthalene-2-sulfonic acid,6-hydroxynaphthalene-2-sulfonic acid,28477,DTXSID2047014,Oc1cc2ccc(cc2cc1)S(O)(=O)=O,"InChI=1S/C10H8O4S/c11-9-3-1-8-6-10(15(12,13)14)4-2-7(8)5-9/h1-6,11H,(H,12,13,14)",VVPHSMHEYVOVLH-UHFFFAOYSA-N,?,,125.0,101177
101180,93-07-2,93-07-2,COc1ccc(cc1OC)C(O)=O,"3,4-DIMETHOXYBENZOIC ACID","Benzoic acid, 3,4-dimethoxy-","3,4-Dimethoxybenzoic acid",28479,DTXSID6059077,COc1ccc(cc1OC)C(O)=O,"InChI=1S/C9H10O4/c1-12-7-4-3-6(9(10)11)5-8(7)13-2/h3-5H,1-2H3,(H,10,11)",DAUAQNGYDSHRET-UHFFFAOYSA-N,?,,181.0,101180
101181,93-08-3,93-08-3,CC(=O)c1cc2ccccc2cc1,1-(2-NAPHTHALENYL)ETHANONE,2'-Acetonaphthone,1-(naphthalen-2-yl)ethanone,28480,DTXSID2041389,CC(=O)c1cc2ccccc2cc1,"InChI=1S/C12H10O/c1-9(13)11-7-6-10-4-2-3-5-12(10)8-11/h2-8H,1H3",XSAYZAUNJMRRIR-UHFFFAOYSA-N,?,,56.0,101181
101183,93-10-7,93-10-7,OC(=O)c1ccc2ccccc2[n]1,2-Quinolinecarboxylic acid,2-Quinolinecarboxylic acid,Quinoline-2-carboxylic acid,28482,DTXSID6059079,OC(=O)c1ccc2ccccc2[n]1,"InChI=1S/C10H7NO2/c12-10(13)9-6-5-7-3-1-2-4-8(7)11-9/h1-6H,(H,12,13)",LOAUVZALPPNFOQ-UHFFFAOYSA-N,?,,156.0,101183
101184,93-11-8,93-11-8,O=S(=O)(Cl)c1cc2ccccc2cc1,2-Naphthalenesulfonyl chloride,2-Naphthalenesulfonyl chloride,Naphthalene-2-sulfonyl chloride,28483,DTXSID5059080,O=S(=O)(Cl)c1cc2ccccc2cc1,"InChI=1S/C10H7ClO2S/c11-14(12,13)10-6-5-8-3-1-2-4-9(8)7-10/h1-7H",OPECTNGATDYLSS-UHFFFAOYSA-N,?,,81.0,101184
101185,93-14-1,93-14-1,COc1ccccc1OCC(O)CO,"1,2-Propanediol, 3-(2-methoxyphenoxy)-",Guaifenesin,"3-(2-methoxyphenoxy)propane-1,2-diol",28484,DTXSID5023114,COc1ccccc1OCC(O)CO,"InChI=1S/C10H14O4/c1-13-9-4-2-3-5-10(9)14-7-8(12)6-11/h2-5,8,11-12H,6-7H2,1H3",HSRJKNPTNIJEKV-UHFFFAOYSA-N,?,,78.5,101185
101188,93-17-4,93-17-4,COc1ccc(CC#N)cc1OC,"3,4-Dimethoxyphenylacetonitrile","3,4-Dimethoxyphenylacetonitrile","2-(3,4-dimethoxyphenyl)acetonitrile",28486,DTXSID30239220,COc1ccc(CC#N)cc1OC,"InChI=1S/C10H11NO2/c1-12-9-4-3-8(5-6-11)7-10(9)13-2/h3-4,7H,5H2,1-2H3",ASLSUMISAQDOOB-UHFFFAOYSA-N,?,,62.75,101188
101189,93-18-5,93-18-5,CCOc1cc2ccccc2cc1,"Naphthalene, 2-ethoxy-",2-Ethoxynaphthalene,2-ethoxynaphthalene,28487,DTXSID2049684,CCOc1cc2ccccc2cc1,"InChI=1S/C12H12O/c1-2-13-12-8-7-10-5-3-4-6-11(10)9-12/h3-9H,2H2,1H3",GUMOJENFFHZAFP-UHFFFAOYSA-N,?,,37.5,101189
101190,93-20-9,NOCAS_870427,OCCOc1cc2ccccc2cc1,2-(2-Naphthyloxy)ethanol,,,28488,DTXSID00870427,OCCOc1cc2ccccc2cc1,"InChI=1S/C12H12O2/c13-7-8-14-12-6-5-10-3-1-2-4-11(10)9-12/h1-6,9,13H,7-8H2",BQPBZDSDFCDSAO-UHFFFAOYSA-N,?,,76.7,101190
101192,93-26-5,93-26-5,CC(=O)Nc1ccccc1OC,O-METHOXYACETANILIDE,N-(2-Methoxyphenyl)acetamide,N-(2-methoxyphenyl)acetamide,28490,DTXSID0052623,CC(=O)Nc1ccccc1OC,"InChI=1S/C9H11NO2/c1-7(11)10-8-5-3-4-6-9(8)12-2/h3-6H,1-2H3,(H,10,11)",FGOFNVXHDGQVBG-UHFFFAOYSA-N,?,,87.5,101192
101193,93-28-7,93-28-7,CC(=O)Oc1ccc(CC=C)cc1OC,EUGENYL ACETATE,Acetyleugenol,4-allyl-2-methoxyphenyl acetate,28491,DTXSID5052624,CC(=O)Oc1ccc(CC=C)cc1OC,"InChI=1S/C12H14O3/c1-4-5-10-6-7-11(15-9(2)13)12(8-10)14-3/h4,6-8H,1,5H2,2-3H3",SCCDQYPEOIRVGX-UHFFFAOYSA-N,?,,30.5,101193
101194,93-35-6,93-35-6,Oc1cc2OC(=O)C=Cc2cc1,Umbelliferone,Umbelliferone,7-hydroxy-2H-chromen-2-one,28492,DTXSID5052626,Oc1cc2OC(=O)C=Cc2cc1,"InChI=1S/C9H6O3/c10-7-3-1-6-2-4-9(11)12-8(6)5-7/h1-5,10H",ORHBXUUXSCNDEV-UHFFFAOYSA-N,?,,230.5,101194
101197,93-42-5,93-42-5,O=C(CS)Nc1cc2ccccc2cc1,"Acetamide, 2-mercapto-N-2-naphthalenyl-",Thionalide,N-naphthalen-2-yl-2-sulfanylacetamide,28494,DTXSID50239222,O=C(CS)Nc1cc2ccccc2cc1,"InChI=1S/C12H11NOS/c14-12(8-15)13-11-6-5-9-3-1-2-4-10(9)7-11/h1-7,15H,8H2,(H,13,14)",SGMHGVVTMOGJMX-UHFFFAOYSA-N,?,,111.5,101197
101198,93-44-7,NOCAS_861688,O=C(Oc1cc2ccccc2cc1)c1ccccc1,"2-Naphthalenol, benzoate",,,28495,DTXSID50861688,O=C(Oc1cc2ccccc2cc1)c1ccccc1,InChI=1S/C17H12O2/c18-17(14-7-2-1-3-8-14)19-16-11-10-13-6-4-5-9-15(13)12-16/h1-12H,DWJIJRSTYFPKGD-UHFFFAOYSA-N,?,,107.0,101198
101199,93-45-8,93-45-8,Oc1ccc(cc1)Nc1cc2ccccc2cc1,4-(2-NAPHTHYLAMINO)PHENOL,4-(2-Naphthylamino)phenol,4-(naphthalen-2-ylamino)phenol,28496,DTXSID8025701,Oc1ccc(cc1)Nc1cc2ccccc2cc1,"InChI=1S/C16H13NO/c18-16-9-7-14(8-10-16)17-15-6-5-12-3-1-2-4-13(12)11-15/h1-11,17-18H",RACMGQBQYYWANW-UHFFFAOYSA-N,?,,140.0,101199
101201,93-47-0,93-47-0,COc1cc(/C=N/NC(=O)c2cc[n]cc2)ccc1OC,Verazide,Verazide,"N'-[(E)-(3,4-dimethoxyphenyl)methylidene]pyridine-4-carbohydrazide",28498,DTXSID4045002,COc1cc(C=NNC(=O)c2cc[n]cc2)ccc1OC,"InChI=1S/C15H15N3O3/c1-20-13-4-3-11(9-14(13)21-2)10-17-18-15(19)12-5-7-16-8-6-12/h3-10H,1-2H3,(H,18,19)/b17-10+",HPXIKMBHOXLFOR-LICLKQGHSA-N,?,,189.0,101201
101202,93-50-5,93-50-5,COc1cc(Cl)ccc1N,"Benzenamine, 4-chloro-2-methoxy-","Benzenamine, 4-chloro-2-methoxy-",4-chloro-2-methoxyaniline,28499,DTXSID5059088,COc1cc(Cl)ccc1N,"InChI=1S/C7H8ClNO/c1-10-7-4-5(8)2-3-6(7)9/h2-4H,9H2,1H3",WOXLPNAOCCIZGP-UHFFFAOYSA-N,?,,52.0,101202
101203,93-51-6,93-51-6,Cc1ccc(O)c(c1)OC,4-Methyl-2-methoxyphenol,2-Methoxy-4-methylphenol,2-methoxy-4-methylphenol,28500,DTXSID6047105,Cc1ccc(O)c(c1)OC,"InChI=1S/C8H10O2/c1-6-3-4-7(9)8(5-6)10-2/h3-5,9H,1-2H3",PETRWTHZSKVLRE-UHFFFAOYSA-N,?,,5.5,101203
101205,93-55-0,93-55-0,CCC(=O)c1ccccc1,PROPIOPHENONE,1-Phenylpropan-1-one,1-phenylpropan-1-one,28502,DTXSID2044470,CCC(=O)c1ccccc1,"InChI=1S/C9H10O/c1-2-9(10)8-6-4-3-5-7-8/h3-7H,2H2,1H3",KRIOVPPHQSLHCZ-UHFFFAOYSA-N,?,,18.6,101205
101206,93-56-1,93-56-1,OCC(O)c1ccccc1,"1,2-Ethanediol, 1-phenyl-",Styrene glycol,"1-phenylethane-1,2-diol",28503,DTXSID8042422,OCC(O)c1ccccc1,"InChI=1S/C8H10O2/c9-6-8(10)7-4-2-1-3-5-7/h1-5,8-10H,6H2",PWMWNFMRSKOCEY-UHFFFAOYSA-N,?,,67.5,101206
101207,93-58-3,93-58-3,COC(=O)c1ccccc1,"BENZOIC ACID, METHYL ESTER",Methyl benzoate,methyl benzoate,28504,DTXSID5025572,COC(=O)c1ccccc1,"InChI=1S/C8H8O2/c1-10-8(9)7-5-3-2-4-6-7/h2-6H,1H3",QPJVMBTYPHYUOC-UHFFFAOYSA-N,?,,-15.0,101207
101209,93-60-7,93-60-7,COC(=O)c1ccc[n]c1,"NICOTINIC ACID, METHYL ESTER",Methyl nicotinate,methyl pyridine-3-carboxylate,28506,DTXSID7044471,COC(=O)c1ccc[n]c1,"InChI=1S/C7H7NO2/c1-10-7(9)6-3-2-4-8-5-6/h2-5H,1H3",YNBADRVTZLEFNH-UHFFFAOYSA-N,?,,42.5,101209
101210,93-61-8,93-61-8,CN(C=O)c1ccccc1,N-METHYLFORMANILIDE,"Formamide, N-methyl-N-phenyl-",N-Methyl-N-phenylformamide,28507,DTXSID0059089,CN(C=O)c1ccccc1,"InChI=1S/C8H9NO/c1-9(7-10)8-5-3-2-4-6-8/h2-7H,1H3",JIKUXBYRTXDNIY-UHFFFAOYSA-N,?,,14.5,101210
101211,93-62-9,93-62-9,OCCN(CC(O)=O)CC(O)=O,N-(2-Hydroxyethyl)iminodiacetic acid,N-(2-Hydroxyethyl)iminodiacetic acid,"2,2'-[(2-hydroxyethyl)imino]diacetic acid",28508,DTXSID4042177,OCCN(CC(O)=O)CC(O)=O,"InChI=1S/C6H11NO5/c8-2-1-7(3-5(9)10)4-6(11)12/h8H,1-4H2,(H,9,10)(H,11,12)",JYXGIOKAKDAARW-UHFFFAOYSA-N,?,,178.0,101211
101213,93-68-5,93-68-5,CC(=O)CC(=O)Nc1ccccc1C,"Butanamide, N-(2-methylphenyl)-3-oxo-",N-(2-Methylphenyl)-3-oxobutanamide,N-(2-methylphenyl)-3-oxobutanamide,28510,DTXSID3026562,CC(=O)CC(=O)Nc1ccccc1C,"InChI=1S/C11H13NO2/c1-8-5-3-4-6-10(8)12-11(14)7-9(2)13/h3-6H,7H2,1-2H3,(H,12,14)",TVZIWRMELPWPPR-UHFFFAOYSA-N,?,,105.0,101213
101214,93-69-6,93-69-6,Cc1ccccc1NC(=N)NC(N)=N,2-Tolylbiguanide,1-(o-Tolyl)biguanide,N-(2-methylphenyl)imidodicarbonimidic diamide,28511,DTXSID3042051,Cc1ccccc1NC(=N)NC(N)=N,"InChI=1S/C9H13N5/c1-6-4-2-3-5-7(6)13-9(12)14-8(10)11/h2-5H,1H3,(H6,10,11,12,13,14)",SQZCAOHYQSOZCE-UHFFFAOYSA-N,?,,144.0,101214
101215,93-70-9,93-70-9,CC(=O)CC(=O)Nc1ccccc1Cl,"Butanamide, N-(2-chlorophenyl)-3-oxo-",N-(2-Chlorophenyl)-3-oxobutanamide,N-(2-chlorophenyl)-3-oxobutanamide,28512,DTXSID9052630,CC(=O)CC(=O)Nc1ccccc1Cl,"InChI=1S/C10H10ClNO2/c1-7(13)6-10(14)12-9-5-3-2-4-8(9)11/h2-5H,6H2,1H3,(H,12,14)",BFVHBHKMLIBQNN-UHFFFAOYSA-N,?,,105.0,101215
101217,93-75-4,93-75-4,S=C1Sc2[n]c3ccccc3[n]c2S1,THIOQUINOX,Thioquinox,"[1,3]dithiolo[4,5-b]quinoxaline-2-thione",28514,DTXSID3042471,S=C1Sc2[n]c3ccccc3[n]c2S1,InChI=1S/C9H4N2S3/c12-9-13-7-8(14-9)11-6-4-2-1-3-5(6)10-7/h1-4H,ILERPRJWJPJZDN-UHFFFAOYSA-N,?,,180.0,101217
101218,93-76-5,93-76-5,OC(=O)COc1cc(Cl)c(Cl)cc1Cl,"2,4,5-TRICHLOROPHENOXYACETIC ACID","2,4,5-Trichlorophenoxyacetic acid","(2,4,5-trichlorophenoxy)acetic acid",28515,DTXSID5021388,OC(=O)COc1cc(Cl)c(Cl)cc1Cl,"InChI=1S/C8H5Cl3O3/c9-4-1-6(11)7(2-5(4)10)14-3-8(12)13/h1-2H,3H2,(H,12,13)",SMYMJHWAQXWPDB-UHFFFAOYSA-N,?,,153.0,101218
101219,93-78-7,93-78-7,CC(C)OC(=O)COc1cc(Cl)c(Cl)cc1Cl,"2,4,5-T, ISOPROPYL ESTER","2,4,5-T-isopropyl","propan-2-yl (2,4,5-trichlorophenoxy)acetate",28516,DTXSID7041332,CC(C)OC(=O)COc1cc(Cl)c(Cl)cc1Cl,"InChI=1S/C11H11Cl3O3/c1-6(2)17-11(15)5-16-10-4-8(13)7(12)3-9(10)14/h3-4,6H,5H2,1-2H3",SXHQLHGHMREHMX-UHFFFAOYSA-N,?,,45.0,101219
101221,93-89-0,93-89-0,CCOC(=O)c1ccccc1,ETHYL BENZOATE,Ethyl benzoate,ethyl benzoate,28518,DTXSID3038696,CCOC(=O)c1ccccc1,"InChI=1S/C9H10O2/c1-2-11-9(10)8-6-4-3-5-7-8/h3-7H,2H2,1H3",MTZQAGJQAFMTAQ-UHFFFAOYSA-N,?,,-34.0,101221
101222,93-91-4,93-91-4,CC(=O)CC(=O)c1ccccc1,"1,3-Butanedione, 1-phenyl-",1-Benzoylacetone,"1-phenylbutane-1,3-dione",28519,DTXSID3021803,CC(=O)CC(=O)c1ccccc1,"InChI=1S/C10H10O2/c1-8(11)7-10(12)9-5-3-2-4-6-9/h2-6H,7H2,1H3",CVBUKMMMRLOKQR-UHFFFAOYSA-N,?,,56.0,101222
101224,93-97-0,93-97-0,O=C(OC(=O)c1ccccc1)c1ccccc1,"BENZOIC ACID, ANHYDRIDE",Benzoic anhydride,benzoic anhydride,28520,DTXSID1029122,O=C(OC(=O)c1ccccc1)c1ccccc1,InChI=1S/C14H10O3/c15-13(11-7-3-1-4-8-11)17-14(16)12-9-5-2-6-10-12/h1-10H,CHIHQLCVLOXUJW-UHFFFAOYSA-N,?,,42.5,101224
101226,93-99-2,93-99-2,O=C(Oc1ccccc1)c1ccccc1,PHENYL BENZOATE,Phenyl benzoate,phenyl benzoate,28522,DTXSID0048210,O=C(Oc1ccccc1)c1ccccc1,InChI=1S/C13H10O2/c14-13(11-7-3-1-4-8-11)15-12-9-5-2-6-10-12/h1-10H,FCJSHPDYVMKCHI-UHFFFAOYSA-N,?,,71.0,101226
101228,94-07-5,94-07-5,CNCC(O)c1ccc(O)cc1,SYNEPHRINE,p-Synephrine,4-[1-hydroxy-2-(methylamino)ethyl]phenol,28523,DTXSID0030588,CNCC(O)c1ccc(O)cc1,"InChI=1S/C9H13NO2/c1-10-6-9(12)7-2-4-8(11)5-3-7/h2-5,9-12H,6H2,1H3",YRCWQPVGYLYSOX-UHFFFAOYSA-N,?,,184.5,101228
101230,94-11-1,94-11-1,CC(C)OC(=O)COc1ccc(Cl)cc1Cl,"2,4-D, ISOPROPYL ESTER","2,4-D isopropyl ester","propan-2-yl (2,4-dichlorophenoxy)acetate",28525,DTXSID5020445,CC(C)OC(=O)COc1ccc(Cl)cc1Cl,"InChI=1S/C11H12Cl2O3/c1-7(2)16-11(14)6-15-10-4-3-8(12)5-9(10)13/h3-5,7H,6H2,1-2H3",WHOKDONDRZNCBC-UHFFFAOYSA-N,?,,5.0,101230
101231,94-12-2,94-12-2,CCCOC(=O)c1ccc(N)cc1,PROPYL-P-AMINOBENZOATE,Risocaine,propyl 4-aminobenzoate,28526,DTXSID3046299,CCCOC(=O)c1ccc(N)cc1,"InChI=1S/C10H13NO2/c1-2-7-13-10(12)8-3-5-9(11)6-4-8/h3-6H,2,7,11H2,1H3",NBFQYHKHPBMJJV-UHFFFAOYSA-N,?,,75.0,101231
101232,94-13-3,94-13-3,CCCOC(=O)c1ccc(O)cc1,P-HYDROXY PROPYL BENZOATE,Propylparaben,propyl 4-hydroxybenzoate,28527,DTXSID4022527,CCCOC(=O)c1ccc(O)cc1,"InChI=1S/C10H12O3/c1-2-7-13-10(12)8-3-5-9(11)6-4-8/h3-6,11H,2,7H2,1H3",QELSKZZBTMNZEB-UHFFFAOYSA-N,?,,97.0,101232
101235,94-20-2,94-20-2,CCCNC(=O)NS(=O)(=O)c1ccc(Cl)cc1,CHLORPROPAMIDE,Chlorpropamide,4-chloro-N-(propylcarbamoyl)benzenesulfonamide,28529,DTXSID9020322,CCCNC(=O)NS(=O)(=O)c1ccc(Cl)cc1,"InChI=1S/C10H13ClN2O3S/c1-2-7-12-10(14)13-17(15,16)9-5-3-8(11)4-6-9/h3-6H,2,7H2,1H3,(H2,12,13,14)",RKWGIWYCVPQPMF-UHFFFAOYSA-N,?,,128.0,101235
101236,94-23-5,94-23-5,CCOc1ccc(cc1)C(=O)OCCN(CC)CC,Parethoxycaine,Parethoxycaine,2-(diethylamino)ethyl 4-ethoxybenzoate,28530,DTXSID0046060,CCOc1ccc(cc1)C(=O)OCCN(CC)CC,"InChI=1S/C15H23NO3/c1-4-16(5-2)11-12-19-15(17)13-7-9-14(10-8-13)18-6-3/h7-10H,4-6,11-12H2,1-3H3",OWWVHQUOYSPNNE-UHFFFAOYSA-N,?,,173.0,101236
101237,94-25-7,94-25-7,CCCCOC(=O)c1ccc(N)cc1,BUTYL-P-AMINOBENZOATE,Butyl 4-aminobenzoate,butyl 4-aminobenzoate,28531,DTXSID7022417,CCCCOC(=O)c1ccc(N)cc1,"InChI=1S/C11H15NO2/c1-2-3-8-14-11(13)9-4-6-10(12)7-5-9/h4-7H,2-3,8,12H2,1H3",IUWVALYLNVXWKX-UHFFFAOYSA-N,?,,58.0,101237
101239,94-30-4,94-30-4,COc1ccc(cc1)C(=O)OCC,"Benzoic acid, 4-methoxy-, ethyl ester","Benzoic acid, 4-methoxy-, ethyl ester",Ethyl 4-methoxybenzoate,28533,DTXSID4059099,COc1ccc(cc1)C(=O)OCC,"InChI=1S/C10H12O3/c1-3-13-10(11)8-4-6-9(12-2)7-5-8/h4-7H,3H2,1-2H3",FHUODBDRWMIBQP-UHFFFAOYSA-N,?,,7.5,101239
101240,94-33-7,94-33-7,OCCOC(=O)c1ccccc1,"1,2-ETHANEDIOL, MONOBENZOATE",,,28534,DTXSID20879477,OCCOC(=O)c1ccccc1,"InChI=1S/C9H10O3/c10-6-7-12-9(11)8-4-2-1-3-5-8/h1-5,10H,6-7H2",LSWRBVSEWBWTDR-UHFFFAOYSA-N,?,,45.0,101240
101241,94-35-9,NOCAS_861692,NC(=O)OCC(O)c1ccccc1,Styramate,,,28535,DTXSID40861692,NC(=O)OCC(O)c1ccccc1,"InChI=1S/C9H11NO3/c10-9(12)13-6-8(11)7-4-2-1-3-5-7/h1-5,8,11H,6H2,(H2,10,12)",OCSOHUROTFFTFO-UHFFFAOYSA-N,?,,111.5,101241
101243,94-37-1,94-37-1,S=C(SSC(=S)N1CCCCC1)N1CCCCC1,Dipentamethylenethiuram disulfide,Dicyclopentamethylenethiuram disulfide,dipiperidin-1-yldithioperoxyanhydride,28537,DTXSID4048727,S=C(SSC(=S)N1CCCCC1)N1CCCCC1,InChI=1S/C12H20N2S4/c15-11(13-7-3-1-4-8-13)17-18-12(16)14-9-5-2-6-10-14/h1-10H2,KNBRWWCHBRQLNY-UHFFFAOYSA-N,?,,137.5,101243