ChemID,source_casrn,CAS,SMILES,NAME,preferred_name,iupac,MPID,dsstox_substance_id,Canonical_QSARr,InChI_Code_QSARr,InChI Key_QSARr,Salt_Solvent,Salt_Solvent_ID,MP,ID
109284,57817-89-7,57817-89-7,C[C@@]12CCC[C@](C)([C@H]1CC[C@@]13CC(=C)[C@@](C1)(CC[C@@H]23)O[C@@H]1O[C@H](CO)[C@@H](O)[C@H](O)[C@H]1O[C@@H]1O[C@H](CO)[C@@H](O)[C@H](O)[C@H]1O)C(=O)O[C@@H]1O[C@H](CO)[C@@H](O)[C@H](O)[C@H]1O,Stevioside,Stevioside,"1-O-[(5beta,8alpha,9beta,10alpha,13alpha)-13-{[2-O-(beta-D-glucopyranosyl)-beta-D-glucopyranosyl]oxy}-18-oxokaur-16-en-18-yl]-beta-D-glucopyranose",35754,DTXSID7021281,CC12CCCC(C)(C1CCC13CC(=C)C(C1)(CCC23)OC1OC(CO)C(O)C(O)C1OC1OC(CO)C(O)C(O)C1O)C(=O)OC1OC(CO)C(O)C(O)C1O,"InChI=1S/C38H60O18/c1-16-11-37-9-5-20-35(2,7-4-8-36(20,3)34(50)55-32-29(49)26(46)23(43)18(13-40)52-32)21(37)6-10-38(16,15-37)56-33-30(27(47)24(44)19(14-41)53-33)54-31-28(48)25(45)22(42)17(12-39)51-31/h17-33,39-49H,1,4-15H2,2-3H3",UEDUENGHJMELGK-UHFFFAOYSA-N,?,,198.0,109284
109290,57973-67-8|63782-90-1,57973-67-8|63782-90-1,CC(C)OC(=O)[C@H](C)N(c1cc(Cl)c(F)cc1)C(=O)c1ccccc1,Flamprop-M-isopropyl,L-Flamprop-isopropyl,propan-2-yl N-benzoyl-N-(3-chloro-4-fluorophenyl)-L-alaninate,35758|35828,DTXSID9042095|DTXSID8058245,CC(C)OC(=O)C(C)N(c1cc(Cl)c(F)cc1)C(=O)c1ccccc1,"InChI=1S/C19H19ClFNO3/c1-12(2)25-19(24)13(3)22(15-9-10-17(21)16(20)11-15)18(23)14-7-5-4-6-8-14/h4-13H,1-3H3",IKVXBIIHQGXQRQ-UHFFFAOYSA-N,?,,78.5,109290
109295,58306-30-2,58306-30-2,COCC(=O)Nc1cc(ccc1N=C(NC(=O)OC)NC(=O)OC)Sc1ccccc1,Febantel,Febantel,dimethyl ({2-[(methoxyacetyl)amino]-4-(phenylsulfanyl)phenyl}carbonimidoyl)biscarbamate,35762,DTXSID6046898,COCC(=O)Nc1cc(ccc1N=C(NC(=O)OC)NC(=O)OC)Sc1ccccc1,"InChI=1S/C20H22N4O6S/c1-28-12-17(25)21-16-11-14(31-13-7-5-4-6-8-13)9-10-15(16)22-18(23-19(26)29-2)24-20(27)30-3/h4-11H,12H2,1-3H3,(H,21,25)(H2,22,23,24,26,27)",HMCCXLBXIJMERM-UHFFFAOYSA-N,?,,129.5,109295
109299,58802-15-6,58802-15-6,Clc1cc2oc3c(c2cc1Cl)c(Cl)c(Cl)cc3Cl,"1,2,4,7,8-PENTACHLORODIBENZOFURAN","1,2,4,7,8-Pentachlorodibenzofuran","1,2,4,7,8-PENTACHLORODIBENZOFURAN",35766,DTXSID60207533,Clc1cc2oc3c(c2cc1Cl)c(Cl)c(Cl)cc3Cl,InChI=1S/C12H3Cl5O/c13-5-1-4-9(3-6(5)14)18-12-8(16)2-7(15)11(17)10(4)12/h1-3H,GCFDWHIKRXCUPJ-UHFFFAOYSA-N,?,,237.0,109299
109303,58970-76-6,58970-76-6,CC(C)C[C@@H](NC(=O)[C@@H](O)[C@H](N)Cc1ccccc1)C(O)=O,Ubenimex,Ubenimex,"N-[(2S,3R)-3-amino-2-hydroxy-4-phenylbutanoyl]-D-leucine",35770,DTXSID4048430,CC(C)CC(NC(=O)C(O)C(N)Cc1ccccc1)C(O)=O,"InChI=1S/C16H24N2O4/c1-10(2)8-13(16(21)22)18-15(20)14(19)12(17)9-11-6-4-3-5-7-11/h3-7,10,12-14,19H,8-9,17H2,1-2H3,(H,18,20)(H,21,22)",VGGGPCQERPFHOB-UHFFFAOYSA-N,?,,234.5,109303
109307,59198-70-8,59198-70-8,C[C@@H]1C[C@H]2[C@@H]3C[C@H](F)C4=CC(=O)C=C[C@]4(C)[C@@]3(F)[C@@H](O)C[C@]2(C)[C@H]1C(=O)COC(=O)CCCC,Diflucortolone valerate,Diflucortolone valerate,"(6alpha,11beta,16alpha)-6,9-difluoro-11-hydroxy-16-methyl-3,20-dioxopregna-1,4-dien-21-yl pentanoate",35774,DTXSID1048598,CC1CC2C3CC(F)C4=CC(=O)C=CC4(C)C3(F)C(O)CC2(C)C1C(=O)COC(=O)CCCC,"InChI=1S/C27H36F2O5/c1-5-6-7-23(33)34-14-21(31)24-15(2)10-17-18-12-20(28)19-11-16(30)8-9-26(19,4)27(18,29)22(32)13-25(17,24)3/h8-9,11,15,17-18,20,22,24,32H,5-7,10,12-14H2,1-4H3",HHJIUUAMYGBVSD-UHFFFAOYSA-N,?,,195.0,109307
109312,59443-94-6,59443-94-6,Nc1ccc(cc1)C(=O)CC#N,"Benzenepropanenitrile, 4-amino-beta-oxo-","Benzenepropanenitrile, 4-amino-.beta.-oxo-",3-(4-aminophenyl)-3-oxopropanenitrile,35777,DTXSID0069331,Nc1ccc(cc1)C(=O)CC#N,"InChI=1S/C9H8N2O/c10-6-5-9(12)7-1-3-8(11)4-2-7/h1-4H,5,11H2",BEWGVKVWWKCFHO-UHFFFAOYSA-N,?,,158.7,109312
109316,59729-31-6,59729-31-6,CC(C)N1CCC(CC1)N(C(=O)Cc1ccccc1)c1ccc(Cl)cc1,LORCAINIDE,Lorcainide,N-(4-chlorophenyl)-2-phenyl-N-[1-(propan-2-yl)piperidin-4-yl]acetamide,35781,DTXSID2023226,CC(C)N1CCC(CC1)N(C(=O)Cc1ccccc1)c1ccc(Cl)cc1,"InChI=1S/C22H27ClN2O/c1-17(2)24-14-12-21(13-15-24)25(20-10-8-19(23)9-11-20)22(26)16-18-6-4-3-5-7-18/h3-11,17,21H,12-16H2,1-2H3",XHOJAWVAWFHGHL-UHFFFAOYSA-N,?,,263.0,109316
109321,59997-51-2,59997-51-2,CC(C)(C)C(=O)CC#N,"Pentanenitrile, 4,4-dimethyl-3-oxo-","Pentanenitrile, 4,4-dimethyl-3-oxo-","4,4-Dimethyl-3-oxopentanenitrile",35785,DTXSID6069375,CC(C)(C)C(=O)CC#N,"InChI=1S/C7H11NO/c1-7(2,3)6(9)4-5-8/h4H2,1-3H3",MXZMACXOMZKYHJ-UHFFFAOYSA-N,?,,71.0,109321
109326,60211-57-6,60211-57-6,OCc1cc(Cl)cc(Cl)c1,"BENZENEMETHANOL, 3,5-DICHLORO-","3,5-Dichlorobenzylic alcohol","(3,5-dichlorophenyl)methanol",35789,DTXSID10208959,OCc1cc(Cl)cc(Cl)c1,"InChI=1S/C7H6Cl2O/c8-6-1-5(4-10)2-7(9)3-6/h1-3,10H,4H2",VSNNLLQKDRCKCB-UHFFFAOYSA-N,?,,80.5,109326
109331,60568-05-0,60568-05-0,CON(C1CCCCC1)C(=O)c1cc(C)oc1C,Furmecyclox,Furmecyclox,"N-cyclohexyl-N-methoxy-2,5-dimethylfuran-3-carboxamide",35793,DTXSID2024119,CON(C1CCCCC1)C(=O)c1cc(C)oc1C,"InChI=1S/C14H21NO3/c1-10-9-13(11(2)18-10)14(16)15(17-3)12-7-5-4-6-8-12/h9,12H,4-8H2,1-3H3",QTDRLOKFLJJHTG-UHFFFAOYSA-N,?,,33.0,109331
109336,61019-78-1,61019-78-1,CCCCC(C[n]1c[n]cc1)(C#N)c1ccccc1,FENAPANIL,Fenapanil,2-(1H-imidazol-1-ylmethyl)-2-phenylhexanenitrile,35797,DTXSID7041968,CCCCC(C[n]1c[n]cc1)(C#N)c1ccccc1,"InChI=1S/C16H19N3/c1-2-3-9-16(12-17,13-19-11-10-18-14-19)15-7-5-4-6-8-15/h4-8,10-11,14H,2-3,9,13H2,1H3",OQOULEWDDRNBSG-UHFFFAOYSA-N,?,,161.0,109336
109340,61380-40-3,NOCAS_866851,CCC(=O)N(c1ccccc1)[C@]1(CCN(C[C@H]1C)CCc1ccccc1)C(=O)OC,LOFENTANIL,,,35801,DTXSID10866851,CCC(=O)N(c1ccccc1)C1(CCN(CC1C)CCc1ccccc1)C(=O)OC,"InChI=1S/C25H32N2O3/c1-4-23(28)27(22-13-9-6-10-14-22)25(24(29)30-3)16-18-26(19-20(25)2)17-15-21-11-7-5-8-12-21/h5-14,20H,4,15-19H2,1-3H3",IMYHGORQCPYVBZ-UHFFFAOYSA-N,?,,177.0,109340
109344,61601-23-8,61601-23-8,CC(=O)Oc1c(OC)c(OC)c(OC(C)=O)c2ccccc21,"1,4-NAPHTHALENEDIOL, 2,3-DIMETHOXY-, DIACETATE",PUBCHEM_71394219,C16H20O8,35805,DTXSID90815943,CC(=O)Oc1c(OC)c(OC)c(OC(C)=O)c2ccccc21,"InChI=1S/C16H16O6/c1-9(17)21-13-11-7-5-6-8-12(11)14(22-10(2)18)16(20-4)15(13)19-3/h5-8H,1-4H3",FWZOAZCZNHOBPR-UHFFFAOYSA-N,?,,138.0,109344
109350,62127-47-3,NOCAS_871446,CC(Br)C(C)(Br)Br,"Butane, 2,2,3-tribromo-",,,35809,DTXSID70871446,CC(Br)C(C)(Br)Br,"InChI=1S/C4H7Br3/c1-3(5)4(2,6)7/h3H,1-2H3",JDWNTZIECWWBAO-UHFFFAOYSA-N,?,,1.8,109350
109354,62666-20-0,62666-20-0,NC(=O)CCC/N=C(/c1cc(F)ccc1O)\c1ccc(Cl)cc1,PROGABIDE,,,35813,DTXSID00878140,NC(=O)CCCN=C(c1cc(F)ccc1O)c1ccc(Cl)cc1,"InChI=1S/C17H16ClFN2O2/c18-12-5-3-11(4-6-12)17(21-9-1-2-16(20)23)14-10-13(19)7-8-15(14)22/h3-8,10,22H,1-2,9H2,(H2,20,23)/b21-17+",IBALRBWGSVJPAP-HEHNFIMWSA-N,?,,134.0,109354
109358,62924-70-3,62924-70-3,CCN(Cc1c(F)cccc1Cl)c1c(cc(cc1[N+]([O-])=O)C(F)(F)F)[N+]([O-])=O,FLUMETRALIN,Flumetralin,"N-(2-chloro-6-fluorobenzyl)-N-ethyl-2,6-dinitro-4-(trifluoromethyl)aniline",35817,DTXSID7032553,CCN(Cc1c(F)cccc1Cl)c1c(cc(cc1[N+]([O-])=O)C(F)(F)F)[N+]([O-])=O,"InChI=1S/C16H12ClF4N3O4/c1-2-22(8-10-11(17)4-3-5-12(10)18)15-13(23(25)26)6-9(16(19,20)21)7-14(15)24(27)28/h3-7H,2,8H2,1H3",PWNAWOCHVWERAR-UHFFFAOYSA-N,?,,102.0,109358
109363,63278-33-1,63278-33-1,N#CC(=NOCC#N)c1ccccc1,"Benzeneacetonitrile, alpha-((cyanomethoxy)imino)",.alpha.-[(Cyanomethoxy)imino]benzeneacetonitrile,,35821,DTXSID8069806,N#CC(=NOCC#N)c1ccccc1,"InChI=1S/C10H7N3O/c11-6-7-14-13-10(8-12)9-4-2-1-3-5-9/h1-5H,7H2/b13-10+",PYKLUAIDKVVEOS-JLHYYAGUSA-N,?,,55.0,109363
109367,63610-08-2,63610-08-2,CCC(C(O)=O)c1ccc(cc1)N1Cc2ccccc2C1=O,Indobufen,Indobufen,"2-[4-(1-oxo-1,3-dihydro-2H-isoindol-2-yl)phenyl]butanoic acid",35825,DTXSID7057789,CCC(C(O)=O)c1ccc(cc1)N1Cc2ccccc2C1=O,"InChI=1S/C18H17NO3/c1-2-15(18(21)22)12-7-9-14(10-8-12)19-11-13-5-3-4-6-16(13)17(19)20/h3-10,15H,2,11H2,1H3,(H,21,22)",AYDXAULLCROVIT-UHFFFAOYSA-N,?,,183.0,109367
109379,64098-82-4,64098-82-4,CCCCNC(=O)N1C=C(F)C(=O)NC1=O,"1(2H)-PYRIMIDINECARBOXAMIDE, N-BUTYL-5-FLUORO-3,","1(2H)-Pyrimidinecarboxamide, N-butyl-5-fluoro-3,4-dihydro-2,4-dioxo-","N-butyl-5-fluoro-2,4-dioxopyrimidine-1-carboxamide",35831,DTXSID30214294,CCCCNC(=O)N1C=C(F)C(=O)NC1=O,"InChI=1S/C9H12FN3O3/c1-2-3-4-11-8(15)13-5-6(10)7(14)12-9(13)16/h5H,2-4H2,1H3,(H,11,15)(H,12,14,16)",PVSNDBKXSKXPHM-UHFFFAOYSA-N,?,,136.0,109379
109384,64560-17-4,64560-17-4,Clc1cc(Cl)c2c3c(cc(Cl)cc3Cl)oc2c1,"DIBENZOFURAN, 1,3,7,9-TETRACHLORO-","1,3,7,9-Tetrachlorodibenzofuran","1,3,7,9-TETRACHLORODIBENZOFURAN",35836,DTXSID60214828,Clc1cc(Cl)c2c3c(cc(Cl)cc3Cl)oc2c1,InChI=1S/C12H4Cl4O/c13-5-1-7(15)11-9(3-5)17-10-4-6(14)2-8(16)12(10)11/h1-4H,IEMJMCVYAORWJV-UHFFFAOYSA-N,?,,207.0,109384
109388,64649-63-4,64649-63-4,CCN(CC)C(=O)COC(=O)c1ccccc1,"BENZOIC ACID, 2-(DIETHYLAMINO)-2-OXOETHYL ESTER",PUBCHEM_14033050,C13H17NO3,35840,DTXSID50554745,CCN(CC)C(=O)COC(=O)c1ccccc1,"InChI=1S/C13H17NO3/c1-3-14(4-2)12(15)10-17-13(16)11-8-6-5-7-9-11/h5-9H,3-4,10H2,1-2H3",MTAAHMQCSJMGHI-UHFFFAOYSA-N,?,,72.5,109388
109392,65277-42-1,65277-42-1,CC(=O)N1CCN(CC1)c1ccc(cc1)OC[C@H]1CO[C@@](C[n]2c[n]cc2)(O1)c1ccc(Cl)cc1Cl,"PIPERAZINE, 1-ACETYL-4-[4-[[2-(2,4-DICHLOROPHENY",Ketoconazole,"1-[4-(4-{[(2R,4S)-2-(2,4-dichlorophenyl)-2-(1H-imidazol-1-ylmethyl)-1,3-dioxolan-4-yl]methoxy}phenyl)piperazin-1-yl]ethanone",35844,DTXSID7029879,CC(=O)N1CCN(CC1)c1ccc(cc1)OCC1COC(C[n]2c[n]cc2)(O1)c1ccc(Cl)cc1Cl,"InChI=1S/C26H28Cl2N4O4/c1-19(33)31-10-12-32(13-11-31)21-3-5-22(6-4-21)34-15-23-16-35-26(36-23,17-30-9-8-29-18-30)24-7-2-20(27)14-25(24)28/h2-9,14,18,23H,10-13,15-17H2,1H3",XMAYWYJOQHXEEK-UHFFFAOYSA-N,?,,146.0,109392
109397,66108-95-0,66108-95-0,CC(=O)N(CC(O)CO)c1c(I)c(c(I)c(c1I)C(=O)NCC(O)CO)C(=O)NCC(O)CO,IOHEXOL,Iohexol,"5-[acetyl(2,3-dihydroxypropyl)amino]-N,N'-bis(2,3-dihydroxypropyl)-2,4,6-triiodobenzene-1,3-dicarboxamide",35848,DTXSID6023157,CC(=O)N(CC(O)CO)c1c(I)c(c(I)c(c1I)C(=O)NCC(O)CO)C(=O)NCC(O)CO,"InChI=1S/C19H26I3N3O9/c1-8(29)25(4-11(32)7-28)17-15(21)12(18(33)23-2-9(30)5-26)14(20)13(16(17)22)19(34)24-3-10(31)6-27/h9-11,26-28,30-32H,2-7H2,1H3,(H,23,33)(H,24,34)",NTHXOOBQLCIOLC-UHFFFAOYSA-N,?,,177.0,109397
109402,66332-96-5,66332-96-5,CC(C)Oc1cc(ccc1)NC(=O)c1ccccc1C(F)(F)F,Flutolanil,Flutolanil,N-[3-(propan-2-yloxy)phenyl]-2-(trifluoromethyl)benzamide,35853,DTXSID8024109,CC(C)Oc1cc(ccc1)NC(=O)c1ccccc1C(F)(F)F,"InChI=1S/C17H16F3NO2/c1-11(2)23-13-7-5-6-12(10-13)21-16(22)14-8-3-4-9-15(14)17(18,19)20/h3-11H,1-2H3,(H,21,22)",PTCGDEVVHUXTMP-UHFFFAOYSA-N,?,,104.5,109402
109406,66480-65-7,NOCAS_871454,C1CCCCC1[n]1[n]c2ccccc2[n]1,"2H-BENZOTRIAZOLE, 2-CYCLOHEXYL-",,,35857,DTXSID00871454,C1CCCCC1[n]1[n]c2ccccc2[n]1,"InChI=1S/C12H15N3/c1-2-6-10(7-3-1)15-13-11-8-4-5-9-12(11)14-15/h4-5,8-10H,1-3,6-7H2",CPCJSLDHBSZVOZ-UHFFFAOYSA-N,?,,46.5,109406
109411,66841-25-6,66841-25-6,CC1(C)[C@H]([C@H]1C(=O)O[C@H](C#N)c1cccc(c1)Oc1ccccc1)C(Br)C(Br)(Br)Br,TRALOMETHRIN,Tralomethrin,"(S)-cyano-3-phenoxybenzyl (1R,3S)-2,2-dimethyl-3-[(1R)-1,2,2,2-tetrabromoethyl]cyclopropanecarboxylate",35861,DTXSID0024343,CC1(C)C(C1C(=O)OC(C#N)c1cccc(c1)Oc1ccccc1)C(Br)C(Br)(Br)Br,"InChI=1S/C22H19Br4NO3/c1-21(2)17(19(23)22(24,25)26)18(21)20(28)30-16(12-27)13-7-6-10-15(11-13)29-14-8-4-3-5-9-14/h3-11,16-19H,1-2H3",YWSCPYYRJXKUDB-UHFFFAOYSA-N,?,,143.0,109411
109416,67481-22-5,67481-22-5,Clc1cc(Cl)c2oc3c(cc(Cl)c(Cl)c3Cl)c2c1,"DIBENZOFURAN, 2,3,4,6,8-PENTACHLORO-","2,3,4,6,8-Pentachlorodibenzofuran","2,3,4,6,8-PENTACHLORODIBENZOFURAN",35866,DTXSID40217837,Clc1cc(Cl)c2oc3c(cc(Cl)c(Cl)c3Cl)c2c1,InChI=1S/C12H3Cl5O/c13-4-1-5-6-3-7(14)9(16)10(17)12(6)18-11(5)8(15)2-4/h1-3H,MKRFORPSRBMAIP-UHFFFAOYSA-N,?,,219.0,109416
109421,67747-09-5,67747-09-5,CCCN(CCOc1c(Cl)cc(Cl)cc1Cl)C(=O)[n]1cc[n]c1,PROCHLORAZ,Prochloraz,"N-propyl-N-[2-(2,4,6-trichlorophenoxy)ethyl]-1H-imidazole-1-carboxamide",35870,DTXSID4024270,CCCN(CCOc1c(Cl)cc(Cl)cc1Cl)C(=O)[n]1cc[n]c1,"InChI=1S/C15H16Cl3N3O2/c1-2-4-20(15(22)21-5-3-19-10-21)6-7-23-14-12(17)8-11(16)9-13(14)18/h3,5,8-10H,2,4,6-7H2,1H3",TVLSRXXIMLFWEO-UHFFFAOYSA-N,?,,48.0,109421
109425,68189-23-1,68189-23-1,CCN(CC)c1ccc(C=NN(c2ccccc2)c2ccccc2)cc1,"Benzaldehyde, 4-(diethylamino)-, diphenylhydrazo","4-[(Diphenylhydrazinylidene)methyl]-N,N-diethylaniline","4-(diphenylcarbohydrazonoyl)-N,N-diethylaniline",35874,DTXSID9052399,CCN(CC)c1ccc(C=NN(c2ccccc2)c2ccccc2)cc1,"InChI=1S/C23H25N3/c1-3-25(4-2)21-17-15-20(16-18-21)19-24-26(22-11-7-5-8-12-22)23-13-9-6-10-14-23/h5-19H,3-4H2,1-2H3/b24-19+",YGBCLRRWZQSURU-LYBHJNIJSA-N,?,,94.5,109425
109432,68659-48-3,NOCAS_871457,CC(=O)NC(=O)COC(=O)c1ccccc1,"ACETAMIDE, N-ACETYL-2-(BENZOYLOXY)-",,,35878,DTXSID80871457,CC(=O)NC(=O)COC(=O)c1ccccc1,"InChI=1S/C11H11NO4/c1-8(13)12-10(14)7-16-11(15)9-5-3-2-4-6-9/h2-6H,7H2,1H3,(H,12,13,14)",NZDAAPUTURAWII-UHFFFAOYSA-N,?,,104.5,109432
109436,69377-81-7,69377-81-7,Nc1c(Cl)c(F)[n]c(OCC(O)=O)c1Cl,Fluroxypyr,Fluroxypyr,"[(4-amino-3,5-dichloro-6-fluoropyridin-2-yl)oxy]acetic acid",35882,DTXSID2034627,Nc1c(Cl)c(F)[n]c(OCC(O)=O)c1Cl,"InChI=1S/C7H5Cl2FN2O3/c8-3-5(11)4(9)7(12-6(3)10)15-1-2(13)14/h1H2,(H2,11,12)(H,13,14)",MEFQWPUMEMWTJP-UHFFFAOYSA-N,?,,232.0,109436
109441,69806-34-4,69806-34-4,CC(Oc1ccc(cc1)Oc1[n]cc(cc1Cl)C(F)(F)F)C(O)=O,HALOXYFOP,Haloxyfop,2-(4-{[3-chloro-5-(trifluoromethyl)pyridin-2-yl]oxy}phenoxy)propanoic acid,35886,DTXSID7042019,CC(Oc1ccc(cc1)Oc1[n]cc(cc1Cl)C(F)(F)F)C(O)=O,"InChI=1S/C15H11ClF3NO4/c1-8(14(21)22)23-10-2-4-11(5-3-10)24-13-12(16)6-9(7-20-13)15(17,18)19/h2-8H,1H3,(H,21,22)",GOCUAJYOYBLQRH-UHFFFAOYSA-N,?,,107.5,109441
109447,70362-48-0,32598-11-1,Clc1cc(-c2cc(Cl)c(Cl)cc2)c(Cl)cc1,"2,3',4',5-Tetrachlorobiphenyl","2,3',4',5-Tetrachlorobiphenyl","2,3',4',5-tetrachlorobiphenyl",35890,DTXSID3038309,Clc1cc(-c2cc(Cl)c(Cl)cc2)c(Cl)cc1,InChI=1S/C12H6Cl4/c13-8-2-4-10(14)9(6-8)7-1-3-11(15)12(16)5-7/h1-6H,KENZYIHFBRWMOD-UHFFFAOYSA-N,?,,106.0,109447
109453,70644-46-1,NOCAS_871460,C1C=CCCC1c1cc[n]cc1,"Pyridine, 4-(3-cyclohexen-1-yl)-",,,35894,DTXSID10871460,C1C=CCCC1c1cc[n]cc1,"InChI=1S/C11H13N/c1-2-4-10(5-3-1)11-6-8-12-9-7-11/h1-2,6-10H,3-5H2",USWHHVUCKNMIRS-UHFFFAOYSA-N,?,,22.1,109453
109457,71195-58-9,71195-58-9,CCN1N=NN(CCN2CCC(COC)(CC2)N(c2ccccc2)C(=O)CC)C1=O,ALFENTANIL,Alfentanil,"N-{1-[2-(4-ethyl-5-oxo-4,5-dihydro-1H-tetrazol-1-yl)ethyl]-4-(methoxymethyl)piperidin-4-yl}-N-phenylpropanamide",35898,DTXSID9022570,CCN1N=NN(CCN2CCC(COC)(CC2)N(c2ccccc2)C(=O)CC)C1=O,"InChI=1S/C21H32N6O3/c1-4-19(28)27(18-9-7-6-8-10-18)21(17-30-3)11-13-24(14-12-21)15-16-26-20(29)25(5-2)22-23-26/h6-10H,4-5,11-17H2,1-3H3",IDBPHNDTYPBSNI-UHFFFAOYSA-N,?,,140.8,109457
109463,71605-85-1,71605-85-1,CCCCCCCCC(=O)OCCCCCCC,Nonanoic acid heptyl ester,Heptyl nonan-1-oate,heptyl nonanoate,35903,DTXSID90221848,CCCCCCCCC(=O)OCCCCCCC,"InChI=1S/C16H32O2/c1-3-5-7-9-10-12-14-16(17)18-15-13-11-8-6-4-2/h3-15H2,1-2H3",ARSLOAKOWGOSEX-UHFFFAOYSA-N,?,,-15.5,109463
109468,71998-72-6,71998-72-6,Clc1cc(Cl)c2c(c1)oc1c2cc(Cl)cc1Cl,"DIBENZOFURAN, 1,3,6,8-TETRACHLORO-","1,3,6,8-Tetrachlorodibenzofuran","1,3,6,8-TETRACHLORODIBENZOFURAN",35908,DTXSID50222275,Clc1cc(Cl)c2c(c1)oc1c2cc(Cl)cc1Cl,InChI=1S/C12H4Cl4O/c13-5-1-7-11-8(15)2-6(14)4-10(11)17-12(7)9(16)3-5/h1-4H,BDXKVABZWRZKOS-UHFFFAOYSA-N,?,,177.0,109468
109472,72459-58-6,72459-58-6,O=[N+]1[N-]C(=Nc2ccc(Cl)cc12)[n]1c[n]cc1,TRIAZOXIDE,Triazoxide,"7-chloro-3-(1H-imidazol-1-yl)-1-oxo-1H-1,2,4-benzotriazin-1-ium-2-ide",35912,DTXSID3058169,O=[N+]1NC(=Nc2ccc(Cl)cc12)[n]1c[n]cc1,"InChI=1S/C10H7ClN5O/c11-7-1-2-8-9(5-7)16(17)14-10(13-8)15-4-3-12-6-15/h1-6H,(H,13,14,17)/q+1",BUADUHVXMFJVLH-UHFFFAOYSA-N,?,,182.0,109472
109477,72956-09-3,72956-09-3,COc1ccccc1OCCNCC(O)COc1cccc2[nH]c3ccccc3c21,Carvedilol,Carvedilol,1-(9H-carbazol-4-yloxy)-3-{[2-(2-methoxyphenoxy)ethyl]amino}propan-2-ol,35917,DTXSID8022747,COc1ccccc1OCCNCC(O)COc1cccc2[nH]c3ccccc3c21,"InChI=1S/C24H26N2O4/c1-28-21-10-4-5-11-22(21)29-14-13-25-15-17(27)16-30-23-12-6-9-20-24(23)18-7-2-3-8-19(18)26-20/h2-12,17,25-27H,13-16H2,1H3",OGHNVEJMJSYVRP-UHFFFAOYSA-N,?,,114.5,109477
109481,73590-58-6,73590-58-6,Cc1c[n]c(CS(=O)c2[nH]c3ccc(cc3[n]2)OC)c(C)c1OC,OMEPRAZOLE,Omeprazole,C17H19N3O3S,35921,DTXSID6021080,Cc1c[n]c(CS(=O)c2[nH]c3ccc(cc3[n]2)OC)c(C)c1OC,"InChI=1S/C17H19N3O3S/c1-10-8-18-15(11(2)16(10)23-4)9-24(21)17-19-13-6-5-12(22-3)7-14(13)20-17/h5-8H,9H2,1-4H3,(H,19,20)",SUBDBMMJDZJVOS-UHFFFAOYSA-N,?,,156.0,109481
109485,74050-98-9,74050-98-9,O=C(C1CCN(CCN2C(=O)Nc3ccccc3C2=O)CC1)c1ccc(F)cc1,Ketanserin,Ketanserin,"3-{2-[4-(4-fluorobenzoyl)piperidin-1-yl]ethyl}quinazoline-2,4(1H,3H)-dione",35925,DTXSID3023188,O=C(C1CCN(CCN2C(=O)Nc3ccccc3C2=O)CC1)c1ccc(F)cc1,"InChI=1S/C22H22FN3O3/c23-17-7-5-15(6-8-17)20(27)16-9-11-25(12-10-16)13-14-26-21(28)18-3-1-2-4-19(18)24-22(26)29/h1-8,16H,9-14H2,(H,24,29)",FPCCSQOGAWCVBH-UHFFFAOYSA-N,?,,231.0,109485
109490,74204-00-5,74204-00-5,Cc1cc(Br)cc(O)c1,3-Bromo-5-methylphenol,PUBCHEM_12648409,C7H7BrO,35929,DTXSID10505632,Cc1cc(Br)cc(O)c1,"InChI=1S/C7H7BrO/c1-5-2-6(8)4-7(9)3-5/h2-4,9H,1H3",OTUYBYTUBWJBLO-UHFFFAOYSA-N,?,,56.5,109490
109495,74472-37-0,74472-37-0,Clc1ccc(cc1)-c1cc(Cl)c(Cl)c(Cl)c1Cl,"2,3,4,4',5-Pentachlorobiphenyl","2,3,4,4',5-Pentachlorobiphenyl","1,2,3,4-tetrachloro-5-(4-chlorophenyl)benzene",35933,DTXSID9074226,Clc1ccc(cc1)-c1cc(Cl)c(Cl)c(Cl)c1Cl,InChI=1S/C12H5Cl5/c13-7-3-1-6(2-4-7)8-5-9(14)11(16)12(17)10(8)15/h1-5H,SXZSFWHOSHAKMN-UHFFFAOYSA-N,?,,98.0,109495
109499,74738-17-3,74738-17-3,N#Cc1c[nH]cc1-c1cccc(Cl)c1Cl,FENPICLONIL,Fenpicionil,"4-(2,3-dichlorophenyl)-1H-pyrrole-3-carbonitrile",35937,DTXSID0036633,N#Cc1c[nH]cc1-c1cccc(Cl)c1Cl,"InChI=1S/C11H6Cl2N2/c12-10-3-1-2-8(11(10)13)9-6-15-5-7(9)4-14/h1-3,5-6,15H",FKLFBQCQQYDUAM-UHFFFAOYSA-N,?,,147.0,109499
109507,75736-33-3,75736-33-3,CC(C)(C)[C@@H](O)[C@H](Cc1ccc(Cl)cc1Cl)[n]1c[n]c[n]1,DICLOBUTRAZOL ISOMERS,Diclobutrazol,"(2R,3R)-1-(2,4-dichlorophenyl)-4,4-dimethyl-2-(1H-1,2,4-triazol-1-yl)pentan-3-ol",35941,DTXSID2058178,CC(C)(C)C(O)C(Cc1ccc(Cl)cc1Cl)[n]1c[n]c[n]1,"InChI=1S/C15H19Cl2N3O/c1-15(2,3)14(21)13(20-9-18-8-19-20)6-10-4-5-11(16)7-12(10)17/h4-5,7-9,13-14,21H,6H2,1-3H3",URDNHJIVMYZFRT-UHFFFAOYSA-N,?,,148.0,109507
109513,76674-21-0,76674-21-0,OC(C[n]1c[n]c[n]1)(c1ccccc1F)c1ccc(F)cc1,FLUTRIAFOL (PP450),Flutriafol,"1-(2-fluorophenyl)-1-(4-fluorophenyl)-2-(1H-1,2,4-triazol-1-yl)ethanol",35946,DTXSID8040727,OC(C[n]1c[n]c[n]1)(c1ccccc1F)c1ccc(F)cc1,"InChI=1S/C16H13F2N3O/c17-13-7-5-12(6-8-13)16(22,9-21-11-19-10-20-21)14-3-1-2-4-15(14)18/h1-8,10-11,22H,9H2",JWUCHKBSVLQQCO-UHFFFAOYSA-N,?,,130.0,109513
109517,76963-41-2,76963-41-2,CNC(=C[N+]([O-])=O)NCCSCc1c[s]c(CN(C)C)[n]1,NIZATIDINE,Nizatidine,"N-{2-[({2-[(dimethylamino)methyl]-1,3-thiazol-4-yl}methyl)sulfanyl]ethyl}-N'-methyl-2-nitroethene-1,1-diamine",35950,DTXSID5023376,CNC(=C[N+]([O-])=O)NCCSCc1c[s]c(CN(C)C)[n]1,"InChI=1S/C12H21N5O2S2/c1-13-11(6-17(18)19)14-4-5-20-8-10-9-21-12(15-10)7-16(2)3/h6,9,13-14H,4-5,7-8H2,1-3H3/b11-6+",SGXXNSQHWDMGGP-IZZDOVSWSA-N,?,,131.0,109517
109521,77501-90-7,77501-90-7,CCOC(=O)COC(=O)c1cc(ccc1[N+]([O-])=O)Oc1ccc(cc1Cl)C(F)(F)F,FLUOROGLYCOFENETHYL,Fluoroglycofen-ethyl,2-ethoxy-2-oxoethyl 5-[2-chloro-4-(trifluoromethyl)phenoxy]-2-nitrobenzoate,35954,DTXSID0041983,CCOC(=O)COC(=O)c1cc(ccc1[N+]([O-])=O)Oc1ccc(cc1Cl)C(F)(F)F,"InChI=1S/C18H13ClF3NO7/c1-2-28-16(24)9-29-17(25)12-8-11(4-5-14(12)23(26)27)30-15-6-3-10(7-13(15)19)18(20,21)22/h3-8H,2,9H2,1H3",IPPAUTOBDWNELX-UHFFFAOYSA-N,?,,65.0,109521
109526,78755-81-4,78755-81-4,CN1Cc2c([n]c[n]2-c2ccc(F)cc2C1=O)C(=O)OCC,FLUMAZENIL,Flumazenil,"ethyl 8-fluoro-5-methyl-6-oxo-5,6-dihydro-4H-imidazo[1,5-a][1,4]benzodiazepine-3-carboxylate",35958,DTXSID2023064,CN1Cc2c([n]c[n]2-c2ccc(F)cc2C1=O)C(=O)OCC,"InChI=1S/C15H14FN3O3/c1-3-22-15(21)13-12-7-18(2)14(20)10-6-9(16)4-5-11(10)19(12)8-17-13/h4-6,8H,3,7H2,1-2H3",OFBIFZUFASYYRE-UHFFFAOYSA-N,?,,202.0,109526
109534,79540-50-4,79540-50-4,CCOCOc1ccc(cc1)C(=O)Nc1cccc(Cl)c1Cl,Etobenzanid,Etobenzanid,"N-(2,3-dichlorophenyl)-4-(ethoxymethoxy)benzamide",35964,DTXSID6058188,CCOCOc1ccc(cc1)C(=O)Nc1cccc(Cl)c1Cl,"InChI=1S/C16H15Cl2NO3/c1-2-21-10-22-12-8-6-11(7-9-12)16(20)19-14-5-3-4-13(17)15(14)18/h3-9H,2,10H2,1H3,(H,19,20)",ICWUMLXQKFTJMH-UHFFFAOYSA-N,?,,92.5,109534
109539,79983-71-4,79983-71-4,CCCCC(O)(C[n]1c[n]c[n]1)c1ccc(Cl)cc1Cl,Hexaconazole,Hexaconazole,"2-(2,4-dichlorophenyl)-1-(1H-1,2,4-triazol-1-yl)hexan-2-ol",35968,DTXSID4034653,CCCCC(O)(C[n]1c[n]c[n]1)c1ccc(Cl)cc1Cl,"InChI=1S/C14H17Cl2N3O/c1-2-3-6-14(20,8-19-10-17-9-18-19)12-5-4-11(15)7-13(12)16/h4-5,7,9-10,20H,2-3,6,8H2,1H3",STMIIPIFODONDC-UHFFFAOYSA-N,?,,111.0,109539