ChemID,source_casrn,CAS,SMILES,NAME,preferred_name,iupac,MPID,dsstox_substance_id,Canonical_QSARr,InChI_Code_QSARr,InChI Key_QSARr,Salt_Solvent,BP,ID
102477,593-98-6,NOCAS_870651,FC(Cl)Br,"METHANE, BROMOCHLOROFLUORO-",,,21490,DTXSID70870651,FC(Cl)Br,InChI=1S/CHBrClF/c2-1(3)4/h1H,YNKZSBSRKWVMEZ-UHFFFAOYSA-N,?,36.0,102477
102479,594-04-7,594-04-7,ClC(Cl)I,dichloroiodomethane,Dichloroiodomethane,dichloro(iodo)methane,21492,DTXSID7021570,ClC(Cl)I,InChI=1S/CHCl2I/c2-1(3)4/h1H,HNLZCOJXSLDGKD-UHFFFAOYSA-N,?,132.0,102479
102480,594-09-2,594-09-2,CP(C)C,"PHOSPHINE, TRIMETHYL-",Trimethyl phosphine,trimethylphosphane,21493,DTXSID00208120,CP(C)C,InChI=1S/C3H9P/c1-4(2)3/h1-3H3,YWWDBCBWQNCYNR-UHFFFAOYSA-N,?,37.5,102480
102482,594-11-6,594-11-6,CC1CC1,METHYLCYCLOPROPANE,"Cyclopropane, methyl-",METHYLCYCLOPROPANE,21494,DTXSID5060481,CC1CC1,"InChI=1S/C4H8/c1-4-2-3-4/h4H,2-3H2,1H3",VNXBKJFUJUWOCW-UHFFFAOYSA-N,?,0.7,102482
102484,594-16-1,594-16-1,CC(C)(Br)Br,"Propane, 2,2-dibromo-","Propane, 2,2-dibromo-","2,2-DIBROMOPROPANE",21496,DTXSID0060482,CC(C)(Br)Br,"InChI=1S/C3H6Br2/c1-3(2,4)5/h1-2H3",ARITXYXYCOZKMU-UHFFFAOYSA-N,?,115.0,102484
102485,594-18-3,594-18-3,ClC(Cl)(Br)Br,"METHANE, DIBROMODICHLORO-",Dibromodichloromethane,dibromo(dichloro)methane,21497,DTXSID4024014,ClC(Cl)(Br)Br,"InChI=1S/CBr2Cl2/c2-1(3,4)5",IHUREIPXVFKEDT-UHFFFAOYSA-N,?,150.2,102485
102486,594-20-7,594-20-7,CC(C)(Cl)Cl,"Propane, 2,2-dichloro-","2,2-Dichloropropane","2,2-dichloropropane",21498,DTXSID7030060,CC(C)(Cl)Cl,"InChI=1S/C3H6Cl2/c1-3(2,4)5/h1-2H3",ZEOVXNVKXIPWMS-UHFFFAOYSA-N,?,69.3,102486
102490,594-36-5,594-36-5,CCC(C)(C)Cl,"BUTANE, 2-CHLORO-2-METHYL-","Butane, 2-chloro-2-methyl-",2-Chloro-2-methylbutane,21500,DTXSID0060484,CCC(C)(C)Cl,"InChI=1S/C5H11Cl/c1-4-5(2,3)6/h4H2,1-3H3",CRNIHJHMEQZAAS-UHFFFAOYSA-N,?,85.5,102490
102492,594-38-7,594-38-7,CCC(C)(C)I,"BUTANE, 2-IODO-2-METHYL-","Butane, 2-iodo-2-methyl-",2-IODO-2-METHYLBUTANE,21501,DTXSID4074720,CCC(C)(C)I,"InChI=1S/C5H11I/c1-4-5(2,3)6/h4H2,1-3H3",NWRZTQFWFPLHHX-UHFFFAOYSA-N,?,124.5,102492
102493,594-39-8,594-39-8,CCC(C)(C)N,"2-Butanamine, 2-methyl-","2-Butanamine, 2-methyl-",2-methylbutan-2-amine,21502,DTXSID5060485,CCC(C)(C)N,"InChI=1S/C5H13N/c1-4-5(2,3)6/h4,6H2,1-3H3",GELMWIVBBPAMIO-UHFFFAOYSA-N,?,77.0,102493
102495,594-44-5,594-44-5,CCS(=O)(=O)Cl,Ethanesulfonyl chloride,Ethanesulfonyl chloride,Ethanesulfonyl chloride,21504,DTXSID0060486,CCS(=O)(=O)Cl,"InChI=1S/C2H5ClO2S/c1-2-6(3,4)5/h2H2,1H3",FRYHCSODNHYDPU-UHFFFAOYSA-N,?,174.0,102495
102496,594-56-9,594-56-9,CC(=C)C(C)(C)C,"2,3,3-TRIMETHYL-1-BUTENE","2,3,3-Trimethylbut-1-ene","2,3,3-Trimethylbut-1-ene",21505,DTXSID80208123,CC(=C)C(C)(C)C,"InChI=1S/C7H14/c1-6(2)7(3,4)5/h1H2,2-5H3",AUYRUAVCWOAHQN-UHFFFAOYSA-N,?,77.9,102496
102497,594-60-5,594-60-5,CC(C)C(C)(C)O,"2,3-DIMETHYL-2-BUTANOL","2,3-Dimethylbutan-2-ol","2,3-Dimethylbutan-2-ol",21506,DTXSID60208126,CC(C)C(C)(C)O,"InChI=1S/C6H14O/c1-5(2)6(3,4)7/h5,7H,1-4H3",IKECULIHBUCAKR-UHFFFAOYSA-N,?,118.4,102497
102499,594-65-0,594-65-0,NC(=O)C(Cl)(Cl)Cl,TRICHLOROACETAMIDE,"2,2,2-Trichloroacetamide","2,2,2-trichloroacetamide",21508,DTXSID5021671,NC(=O)C(Cl)(Cl)Cl,"InChI=1S/C2H2Cl3NO/c3-2(4,5)1(6)7/h(H2,6,7)",UPQQXPKAYZYUKO-UHFFFAOYSA-N,?,240.0,102499
102500,594-70-7,594-70-7,CC(C)(C)[N+]([O-])=O,2-METHYL-2-NITROPROPANE,"Propane, 2-methyl-2-nitro-","N,N-dihydroxy-2-methylpropan-2-amine",21509,DTXSID0060488,CC(C)(C)[N+]([O-])=O,"InChI=1S/C4H9NO2/c1-4(2,3)5(6)7/h1-3H3",AIMREYQYBFBEGQ-UHFFFAOYSA-N,?,127.16,102500
102501,594-72-9,594-72-9,CC(Cl)(Cl)[N+]([O-])=O,"1,1-DICHLORO-1-NITROETHANE","1,1-Dichloro-1-nitroethane","1,1-dichloro-1-nitroethane",21510,DTXSID4021638,CC(Cl)(Cl)[N+]([O-])=O,"InChI=1S/C2H3Cl2NO2/c1-2(3,4)5(6)7/h1H3",OQOGEOLRYAOSKO-UHFFFAOYSA-N,?,123.5,102501
102503,594-83-2,594-83-2,CC(C)(C)C(C)(C)O,"2,3,3,-TRIMETHYL-2-BUTANOL","2-Butanol, 2,3,3-trimethyl- (8CI)(9CI)","2,3,3-trimethylbutan-2-ol",21512,DTXSID40208129,CC(C)(C)C(C)(C)O,"InChI=1S/C7H16O/c1-6(2,3)7(4,5)8/h8H,1-5H3",OKXVARYIKDXAEO-UHFFFAOYSA-N,?,131.0,102503
102504,594-89-8,594-89-8,ClC(Cl)(Cl)C(Cl)(Cl)C(Cl)Cl,"1,1,1,2,2,3,3-heptachloropropane","1,1,1,2,2,3,3-Heptachloropropane","1,1,1,2,2,3,3-HEPTACHLOROPROPANE",21513,DTXSID50208130,ClC(Cl)(Cl)C(Cl)(Cl)C(Cl)Cl,"InChI=1S/C3HCl7/c4-1(5)2(6,7)3(8,9)10/h1H",YFIIENAGGCUHIQ-UHFFFAOYSA-N,?,247.5,102504
102506,595-37-9,595-37-9,CCC(C)(C)C(O)=O,"2,2-DIMETHYL BUTYRIC ACID","2,2-Dimethylbutanoic acid","2,2-dimethylbutanoic acid",21514,DTXSID0032811,CCC(C)(C)C(O)=O,"InChI=1S/C6H12O2/c1-4-6(2,3)5(7)8/h4H2,1-3H3,(H,7,8)",VUAXHMVRKOTJKP-UHFFFAOYSA-N,?,186.0,102506
102508,595-44-8,595-44-8,CCC(Cl)(Cl)[N+]([O-])=O,"1,1-Dichloro-1-nitropropane","Propane, 1,1-dichloro-1-nitro-","1,1-Dichloro-1-nitropropane",21516,DTXSID70208197,CCC(Cl)(Cl)[N+]([O-])=O,"InChI=1S/C3H5Cl2NO2/c1-2-3(4,5)6(7)8/h2H2,1H3",DNYOTMDPSXBJRJ-UHFFFAOYSA-N,?,145.0,102508
102509,595-49-3,595-49-3,CC(C)([N+]([O-])=O)[N+]([O-])=O,"2,2-Dinitropropane","2,2-Dinitropropane","2,2-Dinitropropane",21517,DTXSID30208198,CC(C)([N+]([O-])=O)[N+]([O-])=O,"InChI=1S/C3H6N2O4/c1-3(2,4(6)7)5(8)9/h1-2H3",DHPRWWYQIUXCQM-UHFFFAOYSA-N,?,185.0,102509
102511,597-04-6,597-04-6,CC(=O)C(C)(C)C(=O)OCC,"2,2-Dimethyl-3-oxo-butyric acid ethyl ester","Ethyl 2,2-dimethylacetoacetate",,21518,DTXSID00208403,CC(=O)C(C)(C)C(=O)OCC,"InChI=1S/C8H14O3/c1-5-11-7(10)8(3,4)6(2)9/h5H2,1-4H3",NVAHZHOCRQCUBY-UHFFFAOYSA-N,?,182.0,102511
102513,597-32-0,597-32-0,CC(O)(CCl)CCl,"2-Propanol, 1,3-dichloro-2-methyl-","1,3-Dichloro-2-methyl-2-propanol",C4H8Cl2O,21520,DTXSID80445278,CC(O)(CCl)CCl,"InChI=1S/C4H8Cl2O/c1-4(7,2-5)3-6/h7H,2-3H2,1H3",UZHWBXUQTDSMGJ-UHFFFAOYSA-N,?,174.5,102513
102514,597-35-3,NOCAS_870657,CCS(=O)(=O)CC,DIETHYL SULFONE,,,21521,DTXSID30870657,CCS(=O)(=O)CC,"InChI=1S/C4H10O2S/c1-3-7(5,6)4-2/h3-4H2,1-2H3",MBDUIEKYVPVZJH-UHFFFAOYSA-N,?,248.0,102514
102515,597-49-9,597-49-9,CCC(O)(CC)CC,3-ETHYL-3-PENTANOL,"3-Pentanol, 3-ethyl-",3-Ethylpentan-3-ol,21522,DTXSID9060497,CCC(O)(CC)CC,"InChI=1S/C7H16O/c1-4-7(8,5-2)6-3/h8H,4-6H2,1-3H3",XKIRHOWVQWCYBT-UHFFFAOYSA-N,?,142.0,102515
102518,597-76-2,597-76-2,CCCC(O)(CC)CC,3-Ethyl-3-hexanol,3-Ethylhexan-3-ol,3-Ethylhexan-3-ol,21524,DTXSID60208409,CCCC(O)(CC)CC,"InChI=1S/C8H18O/c1-4-7-8(9,5-2)6-3/h9H,4-7H2,1-3H3",WNDLTOTUHMHNOC-UHFFFAOYSA-N,?,160.0,102518
102519,597-90-0,597-90-0,CCC(O)(CCC)CCC,"4-Heptanol, 4-ethyl-","4-Heptanol, 4-ethyl-",4-ethylheptan-4-ol,21525,DTXSID1060500,CCC(O)(CCC)CCC,"InChI=1S/C9H20O/c1-4-7-9(10,6-3)8-5-2/h10H,4-8H2,1-3H3",GNROHGFUVTWFNG-UHFFFAOYSA-N,?,182.0,102519
102520,597-96-6,56973-28-5,CC[C@@](C)(O)CCC,3-METHYL-3-HEXANOL,"3-Hexanol, 3-methyl-, (R)-",C7H16O,21526,DTXSID00426448,CCC(C)(O)CCC,"InChI=1S/C7H16O/c1-4-6-7(3,8)5-2/h8H,4-6H2,1-3H3",KYWJZCSJMOILIZ-UHFFFAOYSA-N,?,143.0,102520
102522,598-03-8,598-03-8,CCCS(=O)(=O)CCC,PROPYL SULFONE,"Propane, 1,1'-sulfonylbis-",1-propylsulfonylpropane,21528,DTXSID6060501,CCCS(=O)(=O)CCC,"InChI=1S/C6H14O2S/c1-3-5-9(7,8)6-4-2/h3-6H2,1-2H3",JEXYCADTAFPULN-UHFFFAOYSA-N,?,270.0,102522
102523,598-04-9,598-04-9,CCCCS(=O)(=O)CCCC,"Butane, 1,1'-sulfonylbis-","Butane, 1,1'-sulfonylbis-",1-butylsulfonylbutane,21529,DTXSID1060502,CCCCS(=O)(=O)CCCC,"InChI=1S/C8H18O2S/c1-3-5-7-11(9,10)8-6-4-2/h3-8H2,1-2H3",AIDFJGKWTOULTC-UHFFFAOYSA-N,?,291.0,102523
102524,598-09-4,NOCAS_870659,CC1(CCl)CO1,"OXIRANE, 2-(CHLOROMETHYL)-2-METHYL-",,,21530,DTXSID50870659,CC1(CCl)CO1,"InChI=1S/C4H7ClO/c1-4(2-5)3-6-4/h2-3H2,1H3",VVHFXJOCUKBZFS-UHFFFAOYSA-N,?,122.0,102524
102526,598-17-4,27072-47-5,CCC(Br)Br,"1,1-dibromopropane",Dibromopropane,"1,1-dibromopropane",21532,DTXSID70181537,CCC(Br)Br,"InChI=1S/C3H6Br2/c1-2-3(4)5/h3H,2H2,1H3",ATWLRNODAYAMQS-UHFFFAOYSA-N,?,133.5,102526
102527,598-21-0,598-21-0,O=C(Br)CBr,"Acetyl bromide, bromo-","Acetyl bromide, 2-bromo-",2-bromoacetyl bromide,21533,DTXSID1060506,O=C(Br)CBr,InChI=1S/C2H2Br2O/c3-1-2(4)5/h1H2,LSTRKXWIZZZYAS-UHFFFAOYSA-N,?,148.5,102527
102528,598-22-1,598-22-1,CCC(=O)Br,Propionyl bromide,Propionyl bromide,Propanoyl bromide,21534,DTXSID80208527,CCC(=O)Br,"InChI=1S/C3H5BrO/c1-2-3(4)5/h2H2,1H3",RIBFXMJCUYXJDZ-UHFFFAOYSA-N,?,102.0,102528
102530,598-25-4,598-25-4,CC(C)=C=C,"3-METHYL-1,2-BUTADIENE","3-Methylbuta-1,2-diene","3-Methylbuta-1,2-diene",21536,DTXSID00208529,CC(C)=C=C,"InChI=1S/C5H8/c1-4-5(2)3/h1H2,2-3H3",PAKGDPSCXSUALC-UHFFFAOYSA-N,?,40.83,102530
102531,598-31-2,598-31-2,CC(=O)CBr,1-BROMO-2-PROPANONE,Bromoacetone,1-bromopropan-2-one,21537,DTXSID6060507,CC(=O)CBr,"InChI=1S/C3H5BrO/c1-3(5)2-4/h2H2,1H3",VQFAIAKCILWQPZ-UHFFFAOYSA-N,?,138.0,102531
102532,598-32-3,6118-13-4,C[C@H](O)C=C,3-Buten-2-ol,(2S)-but-3-en-2-ol,C4H8O,21538,DTXSID40426447,CC(O)C=C,"InChI=1S/C4H8O/c1-3-4(2)5/h3-5H,1H2,2H3",MKUWVMRNQOOSAT-UHFFFAOYSA-N,?,96.5,102532
102534,598-53-8,598-53-8,COC(C)C,METHYL ISOPROPYL ETHER,"Ether, isopropyl methyl",2-Methoxypropane,21540,DTXSID50208534,COC(C)C,"InChI=1S/C4H10O/c1-4(2)5-3/h4H,1-3H3",RMGHERXMTMUMMV-UHFFFAOYSA-N,?,30.7,102534
102535,598-55-0,598-55-0,COC(N)=O,O-METHYL CARBAMATE,Methyl carbamate,methyl carbamate,21541,DTXSID8020834,COC(N)=O,"InChI=1S/C2H5NO2/c1-5-2(3)4/h1H3,(H2,3,4)",GTCAXTIRRLKXRU-UHFFFAOYSA-N,?,177.0,102535
102536,598-56-1,598-56-1,CCN(C)C,ETHYL DIMETHYLAMINE,"N,N-Dimethylethylamine","N,N-dimethylethanamine",21542,DTXSID4027232,CCN(C)C,"InChI=1S/C4H11N/c1-4-5(2)3/h4H2,1-3H3",DAZXVJBJRMWXJP-UHFFFAOYSA-N,?,36.5,102536
102538,598-61-8,598-61-8,CC1CCC1,METHYLCYCLOBUTANE,"Cyclobutane, methyl-",METHYLCYCLOBUTANE,21544,DTXSID4073916,CC1CCC1,"InChI=1S/C5H10/c1-5-3-2-4-5/h5H,2-4H2,1H3",BDJAEZRIGNCQBZ-UHFFFAOYSA-N,?,36.3,102538
102539,598-72-1,598-72-1,CC(Br)C(O)=O,A-BROMOPROPIONIC ACID,2-Bromopropionic acid,2-bromopropanoic acid,21545,DTXSID9027233,CC(Br)C(O)=O,"InChI=1S/C3H5BrO2/c1-2(4)3(5)6/h2H,1H3,(H,5,6)",MONMFXREYOKQTI-UHFFFAOYSA-N,?,203.0,102539
102540,598-73-2,598-73-2,FC(F)=C(F)Br,"2-BROMO-1,1,2-TRIFLUOROETHYLENE",Bromotrifluoroethene,"1-bromo-1,2,2-trifluoroethene",21546,DTXSID0060513,FC(F)=C(F)Br,InChI=1S/C2BrF3/c3-1(4)2(5)6,AYCANDRGVPTASA-UHFFFAOYSA-N,?,-1.0,102540
102542,598-75-4,NOCAS_862268,CC(C)C(C)O,3-METHYL-2-BUTANOL,,,21548,DTXSID20862268,CC(C)C(C)O,"InChI=1S/C5H12O/c1-4(2)5(3)6/h4-6H,1-3H3",MXLMTQWGSQIYOW-UHFFFAOYSA-N,?,112.0,102542
102543,598-76-5|27177-44-2,NOCAS_870661,CC(C)C(Cl)Cl,"1,1-dichloro-2-methylpropane, Propane, dichloro-2-methyl-","Propane, dichloro-2-methyl-","1,2-DICHLORO-2-METHYLPROPANE",21549|24471,DTXSID20870661,CC(C)C(Cl)Cl,"InChI=1S/C4H8Cl2/c1-3(2)4(5)6/h3-4H,1-2H3",JVHKSSIDGAUKGK-UHFFFAOYSA-N,?,105.75,102543
102544,598-77-6,598-77-6,CC(Cl)C(Cl)Cl,"1,1,2-TRICHLOROPROPANE","1,1,2-Trichloropropane","1,1,2-trichloropropane",21550,DTXSID3024362,CC(Cl)C(Cl)Cl,"InChI=1S/C3H5Cl3/c1-2(4)3(5)6/h2-3H,1H3",GRSQYISVQKPZCW-UHFFFAOYSA-N,?,132.0,102544
102546,598-88-9,598-88-9,FC(Cl)=C(F)Cl,"1,2-DICHLORO-1,2-DIFLUOROETHYLENE","Ethene, 1,2-dichloro-1,2-difluoro-",,21552,DTXSID9073206,FC(Cl)=C(F)Cl,InChI=1S/C2Cl2F2/c3-1(5)2(4)6/b2-1-,UPVJEODAZWTJKZ-UPHRSURJSA-N,?,21.1,102546
102547,598-92-5,NOCAS_870662,CC(Cl)[N+]([O-])=O,"ETHANE, 1-CHLORO-1-NITRO-",,,21553,DTXSID80870662,CC(Cl)[N+]([O-])=O,"InChI=1S/C2H4ClNO2/c1-2(3)4(5)6/h2H,1H3",LPIWIOBGUAPNQW-UHFFFAOYSA-N,?,124.5,102547
102548,598-96-9,598-96-9,CC=C(C)C(C)(C)C,"2-Pentene, 3,4,4-trimethyl-","2-Pentene, 3,4,4-trimethyl-",,21554,DTXSID5060516,CC=C(C)C(C)(C)C,"InChI=1S/C8H16/c1-6-7(2)8(3,4)5/h6H,1-5H3/b7-6+",FZQMZRXKWHQJAG-VOTSOKGWSA-N,?,112.0,102548
102550,598-99-2,598-99-2,COC(=O)C(Cl)(Cl)Cl,METHYL TRICHLOROACETATE,"Acetic acid, 2,2,2-trichloro-, methyl ester","methyl 2,2,2-trichloroacetate",21556,DTXSID0060517,COC(=O)C(Cl)(Cl)Cl,"InChI=1S/C3H3Cl3O2/c1-8-2(7)3(4,5)6/h1H3",VHFUHRXYRYWELT-UHFFFAOYSA-N,?,153.8,102550
102551,599-64-4,599-64-4,CC(C)(c1ccccc1)c1ccc(O)cc1,"Phenol, 4-(1-methyl-1-phenylethyl)-",4-Cumylphenol,C15H16O,21557,DTXSID3022536,CC(C)(c1ccccc1)c1ccc(O)cc1,"InChI=1S/C15H16O/c1-15(2,12-6-4-3-5-7-12)13-8-10-14(16)11-9-13/h3-11,16H,1-2H3",QBDSZLJBMIMQRS-UHFFFAOYSA-N,?,335.0,102551
102552,599-66-6,599-66-6,Cc1ccc(cc1)S(=O)(=O)c1ccc(C)cc1,"Benzene, 1,1'-sulfonylbis 4-methyl-","Benzene, 1,1'-sulfonylbis[4-methyl-",1-methyl-4-(4-methylphenyl)sulfonylbenzene,21558,DTXSID5060518,Cc1ccc(cc1)S(=O)(=O)c1ccc(C)cc1,"InChI=1S/C14H14O2S/c1-11-3-7-13(8-4-11)17(15,16)14-9-5-12(2)6-10-14/h3-10H,1-2H3",WEAYCYAIVOIUMG-UHFFFAOYSA-N,?,406.0,102552
102554,599-99-5,NOCAS_870665,CCOC(=O)C(Br)(Br)Br,Tribromo-acetic acid ethyl ester,,,21560,DTXSID60870665,CCOC(=O)C(Br)(Br)Br,"InChI=1S/C4H5Br3O2/c1-2-9-3(8)4(5,6)7/h2H2,1H3",ZZUKBDJWZXVOQG-UHFFFAOYSA-N,?,225.0,102554
102555,600-00-0,600-00-0,CCOC(=O)C(C)(C)Br,ETHYL ALPHA-BROMOISOBUTYRATE,Ethyl 2-bromoisobutyrate,Ethyl 2-bromo-2-methylpropanoate,21561,DTXSID4060523,CCOC(=O)C(C)(C)Br,"InChI=1S/C6H11BrO2/c1-4-9-5(8)6(2,3)7/h4H2,1-3H3",IOLQWGVDEFWYNP-UHFFFAOYSA-N,?,163.0,102555
102557,600-11-3,NOCAS_870666,CC(Cl)C(Cl)CC,"Pentane, 2,3-dichloro-",,,21562,DTXSID20870666,CC(Cl)C(Cl)CC,"InChI=1S/C5H10Cl2/c1-3-5(7)4(2)6/h4-5H,3H2,1-2H3",HVFJQRZGBBKTPL-UHFFFAOYSA-N,?,139.0,102557
102560,600-22-6,600-22-6,CC(=O)C(=O)OC,"PROPANOIC ACID, 2-OXO-, METHYL ESTER",Methylpyruvate,C4H6O3,21564,DTXSID9049326,CC(=O)C(=O)OC,InChI=1S/C4H6O3/c1-3(5)4(6)7-2/h1-2H3,CWKLZLBVOJRSOM-UHFFFAOYSA-N,?,135.5,102560
102561,600-24-8,600-24-8,CCC(C)[N+]([O-])=O,2-NITROBUTANE,2-Nitrobutane,2-nitrobutane,21565,DTXSID3020968,CCC(C)[N+]([O-])=O,"InChI=1S/C4H9NO2/c1-3-4(2)5(6)7/h4H,3H2,1-2H3",SUGZATOHBPXTDV-UHFFFAOYSA-N,?,139.5,102561
102562,600-25-9,600-25-9,CCC(Cl)[N+]([O-])=O,1-Chloro-1-nitropropane,1-Chloro-1-nitropropane,1-chloro-1-nitropropane,21566,DTXSID2024797,CCC(Cl)[N+]([O-])=O,"InChI=1S/C3H6ClNO2/c1-2-3(4)5(6)7/h3H,2H2,1H3",XEKUXTMJEFPWCG-UHFFFAOYSA-N,?,142.0,102562
102564,600-40-8,600-40-8,CC([N+]([O-])=O)[N+]([O-])=O,"1,1-Dinitroethane","Ethane, 1,1-dinitro-","1,1-Dinitroethane",21568,DTXSID80208704,CC([N+]([O-])=O)[N+]([O-])=O,"InChI=1S/C2H4N2O4/c1-2(3(5)6)4(7)8/h2H,1H3",LKKHEZBRRGJBGH-UHFFFAOYSA-N,?,185.5,102564
102565,601-77-4,601-77-4,CC(C)N(N=O)C(C)C,DI-I-PROPYLNITROSOAMINE,Diisopropylnitrosamine,"N,N-di(propan-2-yl)nitrous amide",21569,DTXSID20208844,CC(C)N(N=O)C(C)C,"InChI=1S/C6H14N2O/c1-5(2)8(7-9)6(3)4/h5-6H,1-4H3",AUIKJTGFPFLMFP-UHFFFAOYSA-N,?,194.5,102565
102566,602-01-7,602-01-7,Cc1cccc(c1[N+]([O-])=O)[N+]([O-])=O,"2,3-DINITROTOLUENE","2,3-Dinitrotoluene","1-methyl-2,3-dinitrobenzene",21570,DTXSID4027236,Cc1cccc(c1[N+]([O-])=O)[N+]([O-])=O,"InChI=1S/C7H6N2O4/c1-5-3-2-4-6(8(10)11)7(5)9(12)13/h2-4H,1H3",DYSXLQBUUOPLBB-UHFFFAOYSA-N,?,284.0,102566
102568,602-55-1,602-55-1,c1c2ccccc2c(c2ccccc21)-c1ccccc1,9-PHENYLANTHRACENE,"Anthracene, 9-phenyl-",9-PHENYLANTHRACENE,21572,DTXSID3075254,c1c2ccccc2c(c2ccccc21)-c1ccccc1,InChI=1S/C20H14/c1-2-8-15(9-3-1)20-18-12-6-4-10-16(18)14-17-11-5-7-13-19(17)20/h1-14H,LUBXLGUQZVKOFP-UHFFFAOYSA-N,?,417.0,102568
102569,602-56-2,NOCAS_870669,c1ccccc1-c1c2ccccc2[n]c2ccccc21,9-Phenyl-acridine,,,21573,DTXSID00870669,c1ccccc1-c1c2ccccc2[n]c2ccccc21,InChI=1S/C19H13N/c1-2-8-14(9-3-1)19-15-10-4-6-12-17(15)20-18-13-7-5-11-16(18)19/h1-13H,MTRFEWTWIPAXLG-UHFFFAOYSA-N,?,404.0,102569
102570,602-94-8,602-94-8,OC(=O)c1c(F)c(F)c(F)c(F)c1F,Pentafluorobenzoic Acid,"Benzoic acid, pentafluoro-","2,3,4,5,6-Pentafluorobenzoic acid",21574,DTXSID4060527,OC(=O)c1c(F)c(F)c(F)c(F)c1F,"InChI=1S/C7HF5O2/c8-2-1(7(13)14)3(9)5(11)6(12)4(2)10/h(H,13,14)",YZERDTREOUSUHF-UHFFFAOYSA-N,?,220.0,102570
102572,603-34-9,603-34-9,c1ccccc1N(c1ccccc1)c1ccccc1,TRIPHENYLAMINE,Triphenylamine,"N,N-diphenylaniline",21576,DTXSID4022076,c1ccccc1N(c1ccccc1)c1ccccc1,InChI=1S/C18H15N/c1-4-10-16(11-5-1)19(17-12-6-2-7-13-17)18-14-8-3-9-15-18/h1-15H,ODHXBMXNKOYIBV-UHFFFAOYSA-N,?,365.0,102572
102573,603-52-1,603-52-1,CCOC(=O)N(c1ccccc1)c1ccccc1,"N,N-Diphenyl ethylcarbamate",Ethyl diphenylcarbamate,"ethyl N,N-di(phenyl)carbamate",21577,DTXSID80209054,CCOC(=O)N(c1ccccc1)c1ccccc1,"InChI=1S/C15H15NO2/c1-2-18-15(17)16(13-9-5-3-6-10-13)14-11-7-4-8-12-14/h3-12H,2H2,1H3",HKTSLDUAGCAISP-UHFFFAOYSA-N,?,360.0,102573
102574,603-69-0,603-69-0,CCOC(=O)C(C(C)=O)C(C)=O,2-Acetyl-3-oxo-butyric acid ethyl ester,Ethyl 2-acetylacetoacetate,ethyl 2-acetyl-3-oxobutanoate,21578,DTXSID80209059,CCOC(=O)C(C(C)=O)C(C)=O,"InChI=1S/C8H12O4/c1-4-12-8(11)7(5(2)9)6(3)10/h7H,4H2,1-3H3",YMCDYRGMTRCAPZ-UHFFFAOYSA-N,?,210.0,102574
102576,603-76-9,603-76-9,C[n]1ccc2ccccc12,1-METHYLINDOLE,"1H-Indole, 1-methyl-",1-Methylindole,21580,DTXSID3060534,C[n]1ccc2ccccc12,"InChI=1S/C9H9N/c1-10-7-6-8-4-2-3-5-9(8)10/h2-7H,1H3",BLRHMMGNCXNXJL-UHFFFAOYSA-N,?,237.0,102576
102577,603-83-8,603-83-8,Cc1c(N)cccc1[N+]([O-])=O,3-Nitro-o-toluidine,2-Methyl-3-nitroaniline,2-methyl-3-nitroaniline,21581,DTXSID8025628,Cc1c(N)cccc1[N+]([O-])=O,"InChI=1S/C7H8N2O2/c1-5-6(8)3-2-4-7(5)9(10)11/h2-4H,8H2,1H3",HFCFJYRLBAANKN-UHFFFAOYSA-N,?,305.0,102577
102578,604-88-6,604-88-6,CCc1c(CC)c(CC)c(CC)c(CC)c1CC,"Benzene, hexaethyl-",Hexaethylbenzene,"1,2,3,4,5,6-hexaethylbenzene",21582,DTXSID8060537,CCc1c(CC)c(CC)c(CC)c(CC)c1CC,"InChI=1S/C18H30/c1-7-13-14(8-2)16(10-4)18(12-6)17(11-5)15(13)9-3/h7-12H2,1-6H3",LXSMILGNHYBUCG-UHFFFAOYSA-N,?,298.0,102578
102580,605-02-7,605-02-7,c1ccccc1-c1cccc2ccccc21,"NAPHTHALENE, 1-PHENYL-",1-Phenylnaphthalene,1-Phenylnaphthalene,21584,DTXSID8060539,c1ccccc1-c1cccc2ccccc21,InChI=1S/C16H12/c1-2-7-13(8-3-1)16-12-6-10-14-9-4-5-11-15(14)16/h1-12H,IYDMICQAKLQHLA-UHFFFAOYSA-N,?,334.0,102580
102581,605-39-0,605-39-0,Cc1ccccc1-c1ccccc1C,"1,1'-BIPHENYL, 2,2'-DIMETHYL-","1,1'-Biphenyl, 2,2'-dimethyl-",1-methyl-2-(2-methylphenyl)benzene,21585,DTXSID7060540,Cc1ccccc1-c1ccccc1C,"InChI=1S/C14H14/c1-11-7-3-5-9-13(11)14-10-6-4-8-12(14)2/h3-10H,1-2H3",ABMKWMASVFVTMD-UHFFFAOYSA-N,?,256.0,102581
102582,605-54-9,605-54-9,CCOCCOC(=O)c1ccccc1C(=O)OCCOCC,"1,2-Benzenedicarboxylic acid, bis(2-ethoxyethyl)","1,2-Benzenedicarboxylic acid, bis(2-ethoxyethyl) ester","bis(2-ethoxyethyl) benzene-1,2-dicarboxylate",21586,DTXSID7060542,CCOCCOC(=O)c1ccccc1C(=O)OCCOCC,"InChI=1S/C16H22O6/c1-3-19-9-11-21-15(17)13-7-5-6-8-14(13)16(18)22-12-10-20-4-2/h5-8H,3-4,9-12H2,1-2H3",RMKYMNRQXYPJHL-UHFFFAOYSA-N,?,345.0,102582
102584,606-21-3,606-21-3,[O-][N+](=O)c1cccc(c1Cl)[N+]([O-])=O,"Benzene, 2-chloro-1,3-dinitro-","2,6-Dinitrochlorobenzene","2-chloro-1,3-dinitrobenzene",21588,DTXSID3041378,[O-][N+](=O)c1cccc(c1Cl)[N+]([O-])=O,InChI=1S/C6H3ClN2O4/c7-6-4(8(10)11)2-1-3-5(6)9(12)13/h1-3H,BPPMIQPXQVIZNJ-UHFFFAOYSA-N,?,315.0,102584
102585,606-27-9,606-27-9,COC(=O)c1ccccc1[N+]([O-])=O,"BENZOIC ACID, 2-NITRO-, METHYL ESTER","Benzoic acid, 2-nitro-, methyl ester",Methyl 2-nitrobenzoate,21589,DTXSID7060548,COC(=O)c1ccccc1[N+]([O-])=O,"InChI=1S/C8H7NO4/c1-13-8(10)6-4-2-3-5-7(6)9(11)12/h2-5H,1H3",AOXPHVNMBPFOFS-UHFFFAOYSA-N,?,275.0,102585
102586,606-28-0,606-28-0,COC(=O)c1ccccc1C(=O)c1ccccc1,"BENZOIC ACID, 2-BENZOYL-, METHYL ESTER",Methyl o-benzoylbenzoate,methyl 2-(benzoyl)benzoate,21590,DTXSID2060549,COC(=O)c1ccccc1C(=O)c1ccccc1,"InChI=1S/C15H12O3/c1-18-15(17)13-10-6-5-9-12(13)14(16)11-7-3-2-4-8-11/h2-10H,1H3",NQSMEZJWJJVYOI-UHFFFAOYSA-N,?,351.0,102586
102588,606-45-1,606-45-1,COC(=O)c1ccccc1OC,"BENZOIC ACID, 2-METHOXY-, METHYL ESTER",Methyl 2-methoxybenzoate,methyl 2-methoxybenzoate,21592,DTXSID5047087,COC(=O)c1ccccc1OC,"InChI=1S/C9H10O3/c1-11-8-6-4-3-5-7(8)9(10)12-2/h3-6H,1-2H3",PFYHAAAQPNMZHO-UHFFFAOYSA-N,?,246.5,102588
102589,606-46-2,606-46-2,Cc1ccccc1N(CC)CC,"Benzenamine, N,N-diethyl-2-methyl-","Benzenamine, N,N-diethyl-2-methyl-","N,N-diethyl-2-methylaniline",21593,DTXSID6060553,Cc1ccccc1N(CC)CC,"InChI=1S/C11H17N/c1-4-12(5-2)11-9-7-6-8-10(11)3/h6-9H,4-5H2,1-3H3",YQYUUNRAPYPAPC-UHFFFAOYSA-N,?,209.0,102589
102590,607-00-1,607-00-1,O=CN(c1ccccc1)c1ccccc1,"Formamide, N,N-diphenyl-","N,N-Diphenylformamide","N,N-diphenylformamide",21594,DTXSID9022077,O=CN(c1ccccc1)c1ccccc1,InChI=1S/C13H11NO/c15-11-14(12-7-3-1-4-8-12)13-9-5-2-6-10-13/h1-11H,DCNUQRBLZWSGAV-UHFFFAOYSA-N,?,337.5,102590
102592,607-31-8,607-31-8,COc1cc[n]c2ccccc12,"QUINOLINE, 4-METHOXY-",4-Methoxyquinoline,C10H9NO,21596,DTXSID00334791,COc1cc[n]c2ccccc12,"InChI=1S/C10H9NO/c1-12-10-6-7-11-9-5-3-2-4-8(9)10/h2-7H,1H3",RWTCJCUERNMVEZ-UHFFFAOYSA-N,?,245.0,102592