ChemID,source_casrn,CAS,SMILES,NAME,preferred_name,iupac,MPID,dsstox_substance_id,Canonical_QSARr,InChI_Code_QSARr,InChI Key_QSARr,Salt_Solvent,BP,ID
103634,1071-26-7,1071-26-7,CCCCCC(C)(C)C,"2,2-DIMETHYLHEPTANE","2,2-Dimethylheptane","2,2-Dimethylheptane",22583,DTXSID0061454,CCCCCC(C)(C)C,"InChI=1S/C9H20/c1-5-6-7-8-9(2,3)4/h5-8H2,1-4H3",PSABUFWDVWCFDP-UHFFFAOYSA-N,?,132.7,103634
103635,1071-27-8,1071-27-8,N#CCCC[Si](Cl)(Cl)Cl,gamma-Cyanopropyltrichlorosilane,"Butanenitrile, 4-(trichlorosilyl)-",4-Trichlorosilylbutanenitrile,22584,DTXSID5061455,N#CCCC[Si](Cl)(Cl)Cl,"InChI=1S/C4H6Cl3NSi/c5-9(6,7)4-2-1-3-8/h1-2,4H2",HMFFOEBLYHLRQN-UHFFFAOYSA-N,?,237.5,103635
103636,1071-73-4,1071-73-4,CC(=O)CCCO,5-Hydroxy-2-pentanone,Acetopropyl alcohol,5-Hydroxypentan-2-one,22585,DTXSID30147917,CC(=O)CCCO,"InChI=1S/C5H10O2/c1-5(7)3-2-4-6/h6H,2-4H2,1H3",JSHPTIGHEWEXRW-UHFFFAOYSA-N,?,209.0,103636
103638,1072-05-5,1072-05-5,CC(C)CCCC(C)C,"HEPTANE, 2,6-DIMETHYL-","Heptane, 2,6-dimethyl-","2,6-DIMETHYLHEPTANE",22587,DTXSID70147931,CC(C)CCCC(C)C,"InChI=1S/C9H20/c1-8(2)6-5-7-9(3)4/h8-9H,5-7H2,1-4H3",KBPCCVWUMVGXGF-UHFFFAOYSA-N,?,135.2,103638
103639,1072-16-8,1072-16-8,CC(C)CCCCC(C)C,"OCTANE, 2,7-DIMETHYL-","Octane, 2,7-dimethyl-","2,7-Dimethyloctane",22588,DTXSID90147933,CC(C)CCCCC(C)C,"InChI=1S/C10H22/c1-9(2)7-5-6-8-10(3)4/h9-10H,5-8H2,1-4H3",KEVMYFLMMDUPJE-UHFFFAOYSA-N,?,159.9,103639
103640,1072-43-1,NOCAS_870835,CC1CS1,"Thiirane, methyl-",,,22589,DTXSID90870835,CC1CS1,"InChI=1S/C3H6S/c1-3-2-4-3/h3H,2H2,1H3",MBNVSWHUJDDZRH-UHFFFAOYSA-N,?,72.5,103640
103642,1072-52-2,1072-52-2,OCCN1CC1,1-Aziridineethanol,1-Aziridineethanol,2-(aziridin-1-yl)ethanol,22591,DTXSID0024551,OCCN1CC1,"InChI=1S/C4H9NO/c6-4-3-5-1-2-5/h6H,1-4H2",VYONOYYDEFODAJ-UHFFFAOYSA-N,?,168.0,103642
103643,1072-83-9,1072-83-9,CC(=O)c1ccc[nH]1,2-ACETYLPYRROLE,2-Acetylpyrrole,1-(1H-pyrrol-2-yl)ethanone,22592,DTXSID0047084,CC(=O)c1ccc[nH]1,"InChI=1S/C6H7NO/c1-5(8)6-3-2-4-7-6/h2-4,7H,1H3",IGJQUJNPMOYEJY-UHFFFAOYSA-N,?,220.0,103643
103644,1072-84-0,1072-84-0,OC(=O)c1c[n]c[nH]1,1H-Imidazole-4-carboxylic acid,1H-Imidazole-4-carboxylic acid,3H-imidazole-4-carboxylic acid,22593,DTXSID00147949,OC(=O)c1c[n]c[nH]1,"InChI=1S/C4H4N2O2/c7-4(8)3-1-5-2-6-3/h1-2H,(H,5,6)(H,7,8)",NKWCGTOZTHZDHB-UHFFFAOYSA-N,?,294.5,103644
103646,1073-06-9,1073-06-9,Fc1cc(Br)ccc1,M-BROMOFLUOROBENZENE,"Benzene, 1-bromo-3-fluoro-",1-Bromo-3-fluorobenzene,22595,DTXSID9061461,Fc1cc(Br)ccc1,InChI=1S/C6H4BrF/c7-5-2-1-3-6(8)4-5/h1-4H,QDFKKJYEIFBEFC-UHFFFAOYSA-N,?,150.0,103646
103647,1073-07-0,NOCAS_870836,C1C=CCCCC=C1,"1,4-CYCLOOCTADIENE",,,22596,DTXSID50870836,C1C=CCCCC=C1,"InChI=1S/C8H12/c1-2-4-6-8-7-5-3-1/h1-2,5,7H,3-4,6,8H2/b2-1-,7-5-",DNZZPKYSGRTNGK-PQZOIKATSA-N,?,145.0,103647
103648,1073-67-2,1073-67-2,C=Cc1ccc(Cl)cc1,P-CHLOROSTYRENE,"Benzene, 1-chloro-4-ethenyl-",1-chloro-4-ethenylbenzene,22597,DTXSID4061464,C=Cc1ccc(Cl)cc1,"InChI=1S/C8H7Cl/c1-2-7-3-5-8(9)6-4-7/h2-6H,1H2",KTZVZZJJVJQZHV-UHFFFAOYSA-N,?,192.0,103648
103651,1074-43-7,1074-43-7,Cc1cccc(CCC)c1,1-METHYL-3-PROPYLBENZENE,1-Methyl-3-propylbenzene,1-Methyl-3-propylbenzene,22599,DTXSID4061468,Cc1cccc(CCC)c1,"InChI=1S/C10H14/c1-3-5-10-7-4-6-9(2)8-10/h4,6-8H,3,5H2,1-2H3",QUEBYVKXYIKVSO-UHFFFAOYSA-N,?,182.0,103651
103652,1074-55-1,1074-55-1,Cc1ccc(CCC)cc1,1-METHYL-4-PROPYLBENZENE,p-Propyltoluene,1-Methyl-4-propylbenzene,22600,DTXSID8061470,Cc1ccc(CCC)cc1,"InChI=1S/C10H14/c1-3-4-10-7-5-9(2)6-8-10/h5-8H,3-4H2,1-2H3",JXFVMNFKABWTHD-UHFFFAOYSA-N,?,183.4,103652
103653,1075-38-3,1075-38-3,Cc1cccc(c1)C(C)(C)C,"BENZENE, 1-(1,1-DIMETHYLETHYL)-3-METHYL-","Benzene, 1-(1,1-dimethylethyl)-3-methyl-",1-tert-Butyl-3-methylbenzene,22601,DTXSID10148068,Cc1cccc(c1)C(C)(C)C,"InChI=1S/C11H16/c1-9-6-5-7-10(8-9)11(2,3)4/h5-8H,1-4H3",JTIAYWZZZOZUTK-UHFFFAOYSA-N,?,189.3,103653
103655,1076-55-7,NOCAS_870837,CC=Cc1cccc(OC)c1O,"PHENOL, 2-METHOXY-6-(1-PROPENYL)-",,,22603,DTXSID10870837,CC=Cc1cccc(OC)c1O,"InChI=1S/C10H12O2/c1-3-5-8-6-4-7-9(12-2)10(8)11/h3-7,11H,1-2H3/b5-3+",GRZNDCXMPLQWIH-HWKANZROSA-N,?,267.5,103655
103656,1076-61-5,1076-61-5,Cc1cc2CCCCc2cc1C,"NAPHTHALENE, 1,2,3,4-TETRAHYDRO-6,7-DIMETHYL-","1,2,3,4-Tetrahydro-6,7-dimethylnaphthalene","6,7-dimethyl-1,2,3,4-tetrahydronaphthalene",22604,DTXSID40148112,Cc1cc2CCCCc2cc1C,"InChI=1S/C12H16/c1-9-7-11-5-3-4-6-12(11)8-10(9)2/h7-8H,3-6H2,1-2H3",MHPANBVNWFIJJM-UHFFFAOYSA-N,?,252.0,103656
103657,1077-16-3,1077-16-3,CCCCCCc1ccccc1,N-HEXYLBENZENE,"Benzene, hexyl-",Hexylbenzene,22605,DTXSID8061476,CCCCCCc1ccccc1,"InChI=1S/C12H18/c1-2-3-4-6-9-12-10-7-5-8-11-12/h5,7-8,10-11H,2-4,6,9H2,1H3",LTEQMZWBSYACLV-UHFFFAOYSA-N,?,226.1,103657
103659,1079-71-6,1079-71-6,C1CCCc2cc3CCCCc3cc21,"1,2,3,4,5,6,7,8-Octahydro-anthracene","1,2,3,4,5,6,7,8-Octahydroanthracene","1,2,3,4,5,6,7,8-Octahydroanthracene",22607,DTXSID90148324,C1CCCc2cc3CCCCc3cc21,"InChI=1S/C14H18/c1-2-6-12-10-14-8-4-3-7-13(14)9-11(12)5-1/h9-10H,1-8H2",LFAYMJXHGYUQNV-UHFFFAOYSA-N,?,294.0,103659
103660,1081-75-0,NOCAS_862527,C(CCc1ccccc1)c1ccccc1,"BENZENE, 1,1'-(1,3-PROPANEDIYL)BIS-",,,22608,DTXSID80862527,C(CCc1ccccc1)c1ccccc1,"InChI=1S/C15H16/c1-3-8-14(9-4-1)12-7-13-15-10-5-2-6-11-15/h1-6,8-11H,7,12-13H2",VEAFKIYNHVBNIP-UHFFFAOYSA-N,?,300.3,103660
103661,1081-77-2,1081-77-2,CCCCCCCCCc1ccccc1,N-NONYLBENZENE,1-Phenylnonane,nonylbenzene,22609,DTXSID7040786,CCCCCCCCCc1ccccc1,"InChI=1S/C15H24/c1-2-3-4-5-6-7-9-12-15-13-10-8-11-14-15/h8,10-11,13-14H,2-7,9,12H2,1H3",LIXVMPBOGDCSRM-UHFFFAOYSA-N,?,280.5,103661
103664,1111-97-3,1111-97-3,CC(C)(Cl)C#C,"1-Butyne, 3-chloro-3-methyl-","1-Butyne, 3-chloro-3-methyl-",3-Chloro-3-methylbut-1-yne,22611,DTXSID2061488,CC(C)(Cl)C#C,"InChI=1S/C5H7Cl/c1-4-5(2,3)6/h1H,2-3H3",QSILYWCNPOLKPN-UHFFFAOYSA-N,?,76.0,103664
103665,1112-39-6,1112-39-6,C[Si](C)(OC)OC,"SILANE, DIMETHOXYDIMETHYL-",Dimethoxydimethylsilane,dimethoxy(dimethyl)silane,22612,DTXSID0042379,C[Si](C)(OC)OC,"InChI=1S/C4H12O2Si/c1-5-7(3,4)6-2/h1-4H3",JJQZDUKDJDQPMQ-UHFFFAOYSA-N,?,82.0,103665
103666,1112-55-6,1112-55-6,C=C[Si](C=C)(C=C)C=C,Tetra(ethene)silane,"Silane, tetraethenyl-",tetra(ethenyl)silane,22613,DTXSID6061490,C=C[Si](C=C)(C=C)C=C,"InChI=1S/C8H12Si/c1-5-9(6-2,7-3)8-4/h5-8H,1-4H2",UFHILTCGAOPTOV-UHFFFAOYSA-N,?,130.2,103666
103668,1113-68-4,1113-68-4,CN(C(C)=O)C(C)=O,"Acetamide, N-acetyl-N-methyl-","Acetamide, N-acetyl-N-methyl-",N-ACETYL-N-METHYLACETAMIDE,22615,DTXSID6061492,CN(C(C)=O)C(C)=O,InChI=1S/C5H9NO2/c1-4(7)6(3)5(2)8/h1-3H3,ZNQFZPCFVNOXJQ-UHFFFAOYSA-N,?,195.0,103668
103669,1113-74-2,1113-74-2,CC(C)C(=NO)C(C)C,"2,4-Dimethyl-pentan-3-one oxime","2,4-Dimethylpentan-3-one oxime","N-(2,4-dimethylpentan-3-ylidene)hydroxylamine",22616,DTXSID00149589,CC(C)C(N=O)C(C)C,"InChI=1S/C7H15NO/c1-5(2)7(8-9)6(3)4/h5-7H,1-4H3",FEAIQODIRWXPOD-UHFFFAOYSA-N,?,181.0,103669
103670,1114-51-8,1114-51-8,CCC(=O)N(CC)CC,"Propanamide, N,N-diethyl-","Propanamide, N,N-diethyl-","N,N-Diethylpropanamide",22617,DTXSID1061493,CCC(=O)N(CC)CC,"InChI=1S/C7H15NO/c1-4-7(9)8(5-2)6-3/h4-6H2,1-3H3",YKOQQFDCCBKROY-UHFFFAOYSA-N,?,191.0,103670
103673,1115-30-6,NOCAS_870842,CC(=O)C(CC(=O)OCC)C(=O)OCC,"Butanedioic acid, acetyl-, diethyl ester",,,22620,DTXSID60870842,CC(=O)C(CC(=O)OCC)C(=O)OCC,"InChI=1S/C10H16O5/c1-4-14-9(12)6-8(7(3)11)10(13)15-5-2/h8H,4-6H2,1-3H3",DVSDDICSXBCMQJ-UHFFFAOYSA-N,?,255.0,103673
103674,1116-24-1,1116-24-1,CC(=O)N(CCC)CCC,"Acetamide, N,N-dipropyl-","Acetamide, N,N-dipropyl-","N,N-Dipropylacetamide",22621,DTXSID1061499,CC(=O)N(CCC)CCC,"InChI=1S/C8H17NO/c1-4-6-9(7-5-2)8(3)10/h4-7H2,1-3H3",IFTIBNDWGNYRLS-UHFFFAOYSA-N,?,209.5,103674
103675,1116-39-8,1116-39-8,CC(C)CB(CC(C)C)CC(C)C,Triisobutyl boron,Triisobutylborane,tris(2-methylpropyl)borane,22622,DTXSID3061500,CC(C)CB(CC(C)C)CC(C)C,"InChI=1S/C12H27B/c1-10(2)7-13(8-11(3)4)9-12(5)6/h10-12H,7-9H2,1-6H3",XDSSGQHOYWGIKC-UHFFFAOYSA-N,?,188.0,103675
103677,1116-61-6,1116-61-6,CCCB(CCC)CCC,Tripropyl-borane,"Borane, tripropyl-",Tripropylborane,22624,DTXSID50149695,CCCB(CCC)CCC,"InChI=1S/C9H21B/c1-4-7-10(8-5-2)9-6-3/h4-9H2,1-3H3",ZMPKTELQGVLZTD-UHFFFAOYSA-N,?,159.0,103677
103678,1116-76-3,1116-76-3,CCCCCCCCN(CCCCCCCC)CCCCCCCC,TRI(N-OCTYL)AMINE,Trioctylamine,"N,N-dioctyloctan-1-amine",22625,DTXSID3047635,CCCCCCCCN(CCCCCCCC)CCCCCCCC,"InChI=1S/C24H51N/c1-4-7-10-13-16-19-22-25(23-20-17-14-11-8-5-2)24-21-18-15-12-9-6-3/h4-24H2,1-3H3",XTAZYLNFDRKIHJ-UHFFFAOYSA-N,?,366.0,103678
103679,1117-55-1,1117-55-1,CCCCCCCC(=O)OCCCCCC,"Octanoic acid, hexyl ester",Hexyl octanoate,hexyl octanoate,22626,DTXSID8047636,CCCCCCCC(=O)OCCCCCC,"InChI=1S/C14H28O2/c1-3-5-7-9-10-12-14(15)16-13-11-8-6-4-2/h3-13H2,1-2H3",PBGWNXWNCSSXCO-UHFFFAOYSA-N,?,277.4,103679
103681,1118-84-9,1118-84-9,CC(=O)CC(=O)OCC=C,"BUTANOIC ACID, 3-OXO-, 2-PROPENYL ESTER",Allyl acetoacetate,prop-2-enyl 3-oxobutanoate,22628,DTXSID40149740,CC(=O)CC(=O)OCC=C,"InChI=1S/C7H10O3/c1-3-4-10-7(9)5-6(2)8/h3H,1,4-5H2,2H3",AXLMPTNTPOWPLT-UHFFFAOYSA-N,?,196.0,103681
103682,1119-40-0,1119-40-0,COC(=O)CCCC(=O)OC,"PENTANEDIOIC ACID, DIMETHYL ESTER",Dimethyl glutarate,C7H12O4,22629,DTXSID3025122,COC(=O)CCCC(=O)OC,"InChI=1S/C7H12O4/c1-10-6(8)4-3-5-7(9)11-2/h3-5H2,1-2H3",XTDYIOOONNVFMA-UHFFFAOYSA-N,?,214.0,103682
103683,1119-46-6,1119-46-6,OC(=O)CCCCCl,5-CHLOROPENTANOIC ACID,5-Chlorovaleric acid,5-CHLOROPENTANOIC ACID,22630,DTXSID60149767,OC(=O)CCCCCl,"InChI=1S/C5H9ClO2/c6-4-2-1-3-5(7)8/h1-4H2,(H,7,8)",YSXDKDWNIPOSMF-UHFFFAOYSA-N,?,230.0,103683
103685,1119-51-3,1119-51-3,C=CCCCBr,"1-Pentene, 5-bromo-","1-Pentene, 5-bromo-",5-Bromopent-1-ene,22632,DTXSID7061512,C=CCCCBr,"InChI=1S/C5H9Br/c1-2-3-4-5-6/h2H,1,3-5H2",LPNANKDXVBMDKE-UHFFFAOYSA-N,?,125.5,103685
103686,1119-60-4,1119-60-4,C=CCCCCC(O)=O,Hept-6-enoic acid,Hept-6-enoic acid,Hept-6-enoic acid,22633,DTXSID80149769,C=CCCCCC(O)=O,"InChI=1S/C7H12O2/c1-2-3-4-5-6-7(8)9/h2H,1,3-6H2,(H,8,9)",RWNJOXUVHRXHSD-UHFFFAOYSA-N,?,226.0,103686
103687,1119-65-9,1119-65-9,CC#CCCCC,2-Heptyne,Hept-2-yne,Hept-2-yne,22634,DTXSID90149770,CC#CCCCC,"InChI=1S/C7H12/c1-3-5-7-6-4-2/h3,5,7H2,1-2H3",AMSFEMSYKQQCHL-UHFFFAOYSA-N,?,112.0,103687
103689,1120-36-1,1120-36-1,CCCCCCCCCCCCC=C,1-TETRADECENE,1-Tetradecene,tetradec-1-ene,22636,DTXSID4027367,CCCCCCCCCCCCC=C,"InChI=1S/C14H28/c1-3-5-7-9-11-13-14-12-10-8-6-4-2/h3H,1,4-14H2,2H3",HFDVRLIODXPAHB-UHFFFAOYSA-N,?,233.0,103689
103690,1120-48-5,1120-48-5,CCCCCCCCNCCCCCCCC,"1-Octanamine, N-octyl-","1-Octanamine, N-octyl-",N-octyloctan-1-amine,22637,DTXSID2061517,CCCCCCCCNCCCCCCCC,"InChI=1S/C16H35N/c1-3-5-7-9-11-13-15-17-16-14-12-10-8-6-4-2/h17H,3-16H2,1-2H3",LAWOZCWGWDVVSG-UHFFFAOYSA-N,?,297.5,103690
103691,1120-56-5,1120-56-5,C=C1CCC1,"Cyclobutane, methylene-","Cyclobutane, methylene-",methylidenecyclobutane,22638,DTXSID2061519,C=C1CCC1,InChI=1S/C5H8/c1-5-3-2-4-5/h1-4H2,QIRVGKYPAOQVNP-UHFFFAOYSA-N,?,42.2,103691
103693,1120-62-3,NOCAS_870844,CC1CCC=C1,"CYCLOPENTENE, 3-METHYL-",,,22640,DTXSID80870844,CC1CCC=C1,"InChI=1S/C6H10/c1-6-4-2-3-5-6/h2,4,6H,3,5H2,1H3",CXOZQHPXKPDQGT-UHFFFAOYSA-N,?,64.9,103693
103694,1120-64-5,NOCAS_870845,CC1=NCCO1,"2-Methyl-4,5-dihydro-oxazole",,,22641,DTXSID40870845,CC1=NCCO1,"InChI=1S/C4H7NO/c1-4-5-2-3-6-4/h2-3H2,1H3",GUXJXWKCUUWCLX-UHFFFAOYSA-N,?,111.0,103694
103695,1120-72-5,NOCAS_862554,CC1CCCC1=O,"Cyclopentanone, 2-methyl-",,,22642,DTXSID50862554,CC1CCCC1=O,"InChI=1S/C6H10O/c1-5-3-2-4-6(5)7/h5H,2-4H2,1H3",ZIXLDMFVRPABBX-UHFFFAOYSA-N,?,139.5,103695
103698,1121-07-9,1121-07-9,CN1C(=O)CCC1=O,N-METHYLSUCCINIMIDE,"2,5-Pyrrolidinedione, 1-methyl-",,22644,DTXSID40149902,CN1C(=O)CCC1=O,"InChI=1S/C5H7NO2/c1-6-4(7)2-3-5(6)8/h2-3H2,1H3",KYEACNNYFNZCST-UHFFFAOYSA-N,?,234.0,103698
103699,1121-24-0,1121-24-0,Oc1ccccc1S,O-MERCAPTOPHENOL,"Phenol, o-mercapto- (6CI,7CI,8CI)",2-Sulfanylphenol,22645,DTXSID80149906,Oc1ccccc1S,"InChI=1S/C6H6OS/c7-5-3-1-2-4-6(5)8/h1-4,7-8H",VMKYTRPNOVFCGZ-UHFFFAOYSA-N,?,217.0,103699
103700,1121-37-5,1121-37-5,O=C(C1CC1)C1CC1,"METHANONE, DICYCLOPROPYL-",Dicyclopropylketone,dicyclopropylmethanone,22646,DTXSID70149910,O=C(C1CC1)C1CC1,"InChI=1S/C7H10O/c8-7(5-1-2-5)6-3-4-6/h5-6H,1-4H2",BIPUHAHGLJKIPK-UHFFFAOYSA-N,?,161.0,103700
103702,1121-60-4,1121-60-4,O=Cc1cccc[n]1,2-PYRIDINECARBOXYALDEHYDE,2-Pyridinecarboxaldehyde,Pyridine-2-carbaldehyde,22648,DTXSID1061522,O=Cc1cccc[n]1,InChI=1S/C6H5NO/c8-5-6-3-1-2-4-7-6/h1-5H,CSDSSGBPEUDDEE-UHFFFAOYSA-N,?,180.0,103702
103703,1122-39-0,1122-39-0,Cc1c[n]c(C)cc1C,"2,4,5-TRIMETHYLPYRIDINE","2,4,5-Trimethylpyridine","2,4,5-TRIMETHYLPYRIDINE",22649,DTXSID60149944,Cc1c[n]c(C)cc1C,"InChI=1S/C8H11N/c1-6-4-8(3)9-5-7(6)2/h4-5H,1-3H3",MNDSSKADVGDFDF-UHFFFAOYSA-N,?,188.0,103703
103704,1122-54-9,1122-54-9,CC(=O)c1cc[n]cc1,4-ACETYLPYRIDINE,4-Acetylpyridine,1-(pyridin-4-yl)ethanone,22650,DTXSID0022147,CC(=O)c1cc[n]cc1,"InChI=1S/C7H7NO/c1-6(9)7-2-4-8-5-3-7/h2-5H,1H3",WMQUKDQWMMOHSA-UHFFFAOYSA-N,?,212.0,103704
103706,1122-62-9,1122-62-9,CC(=O)c1cccc[n]1,2-ACETYLPYRIDINE,2-Acetylpyridine,C7H7NO,22652,DTXSID7024409,CC(=O)c1cccc[n]1,"InChI=1S/C7H7NO/c1-6(9)7-4-2-3-5-8-7/h2-5H,1H3",AJKVQEKCUACUMD-UHFFFAOYSA-N,?,192.0,103706
103707,1122-69-6,1122-69-6,Cc1cccc(CC)[n]1,"PYRIDINE, 2-ETHYL-6-METHYL-",2-Ethyl-6-methylpyridine,2-ETHYL-6-METHYLPYRIDINE,22653,DTXSID70149950,Cc1cccc(CC)[n]1,"InChI=1S/C8H11N/c1-3-8-6-4-5-7(2)9-8/h4-6H,3H2,1-2H3",SFSXNVBMAODLGN-UHFFFAOYSA-N,?,160.5,103707
103708,1122-81-2,1122-81-2,CCCc1cc[n]cc1,4-PROPYLPYRIDINE,4-Propylpyridine,4-Propylpyridine,22654,DTXSID0061531,CCCc1cc[n]cc1,"InChI=1S/C8H11N/c1-2-3-8-4-6-9-7-5-8/h4-7H,2-3H2,1H3",JAWZAONCXMJLFT-UHFFFAOYSA-N,?,185.0,103708
103710,1122-83-4,1122-83-4,O=S=Nc1ccccc1,"Benzenamine, N-sulfinyl-","Benzenamine, N-sulfinyl-",(sulfinylamino)benzene,22656,DTXSID0061533,O=S=Nc1ccccc1,InChI=1S/C6H5NOS/c8-9-7-6-4-2-1-3-5-6/h1-5H,FIOJWGRGPONADF-UHFFFAOYSA-N,?,200.0,103710
103712,1123-09-7,54307-83-4,CC1C[C@@H](C)CC(=O)C=1,"2-CYCLOHEXEN-1-ONE, 3,5-DIMETHYL-","2-Cyclohexen-1-one, 3,5-dimethyl-, (R)-",C8H12O,22657,DTXSID70427588,CC1CC(C)CC(=O)C=1,"InChI=1S/C8H12O/c1-6-3-7(2)5-8(9)4-6/h4,7H,3,5H2,1-2H3",NOQKKFBBAODEHN-UHFFFAOYSA-N,?,208.5,103712
103713,1123-25-7,1123-25-7,CC1(CCCCC1)C(O)=O,1-Methylcyclohexanecarboxylic acid,1-Methylcyclohexanecarboxylic acid,1-Methylcyclohexane-1-carboxylic acid,22658,DTXSID10149979,CC1(CCCCC1)C(O)=O,"InChI=1S/C8H14O2/c1-8(7(9)10)5-3-2-4-6-8/h2-6H2,1H3,(H,9,10)",REHQLKUNRPCYEW-UHFFFAOYSA-N,?,234.0,103713
103715,1123-86-0,1123-86-0,CCC(=O)C1CCCCC1,1-Cyclohexyl-propan-1-one,1-Cyclohexylpropan-1-one,1-Cyclohexylpropan-1-one,22660,DTXSID20149985,CCC(=O)C1CCCCC1,"InChI=1S/C9H16O/c1-2-9(10)8-6-4-3-5-7-8/h8H,2-7H2,1H3",AMHOPTNGSNYSBL-UHFFFAOYSA-N,?,196.0,103715
103716,1123-96-2,1123-96-2,CCc1[n]cc(C)cc1C,"3,5-Dimethyl-2-ethylpyridine","2-Ethyl-3,5-dimethylpyridine","2-Ethyl-3,5-dimethylpyridine",22661,DTXSID30149991,CCc1[n]cc(C)cc1C,"InChI=1S/C9H13N/c1-4-9-8(3)5-7(2)6-10-9/h5-6H,4H2,1-3H3",QLUUXTUCKOZMEL-UHFFFAOYSA-N,?,198.0,103716
103717,1124-05-6,1124-05-6,Cc1cc(Cl)c(C)cc1Cl,"Benzene, 1,4-dichloro-2,5-dimethyl-","1,4-Dichloro-2,5-dimethylbenzene","1,4-dichloro-2,5-dimethylbenzene",22662,DTXSID5044780,Cc1cc(Cl)c(C)cc1Cl,"InChI=1S/C8H8Cl2/c1-5-3-8(10)6(2)4-7(5)9/h3-4H,1-2H3",UTGSRNVBAFCOEU-UHFFFAOYSA-N,?,222.0,103717
103719,1124-11-4,1124-11-4,Cc1[n]c(C)c(C)[n]c1C,"PYRAZINE, TETRAMETHYL-",Tetramethylpyrazine,tetramethylpyrazine,22664,DTXSID6047070,Cc1[n]c(C)c(C)[n]c1C,InChI=1S/C8H12N2/c1-5-6(2)10-8(4)7(3)9-5/h1-4H3,FINHMKGKINIASC-UHFFFAOYSA-N,?,190.0,103719
103720,1124-20-5,1124-20-5,Cc1cccc(c1)C(C)=C,1-METHYL-3-ETHENYL BENZENE,"m,alpha-Dimethylstyrene",1-methyl-3-prop-1-en-2-ylbenzene,22665,DTXSID30150027,Cc1cccc(c1)C(C)=C,"InChI=1S/C10H12/c1-8(2)10-6-4-5-9(3)7-10/h4-7H,1H2,2-3H3",XXTQHVKTTBLFRI-UHFFFAOYSA-N,?,185.0,103720
103721,1124-27-2,NOCAS_870850,CC(C)=C1CCC(C)CC1,p-Menth-4(8)-ene,,,22666,DTXSID90870850,CC(C)=C1CCC(C)CC1,"InChI=1S/C10H18/c1-8(2)10-6-4-9(3)5-7-10/h9H,4-7H2,1-3H3",OLZFGHOLNXRJEC-UHFFFAOYSA-N,?,173.0,103721
103723,1125-80-0,1125-80-0,Cc1cc2ccccc2c[n]1,ISOQUINOLONE-3-METHYL,"Isoquinoline, 3-methyl-",3-Methylisoquinoline,22668,DTXSID2075180,Cc1cc2ccccc2c[n]1,"InChI=1S/C10H9N/c1-8-6-9-4-2-3-5-10(9)7-11-8/h2-7H,1H3",FVVXWRGARUACNW-UHFFFAOYSA-N,?,249.0,103723
103724,1126-75-6,1126-75-6,CC(C)COc1ccccc1,"BENZENE, (2-METHYLPROPOXY)-",Isobutyl phenyl ether,C10H14O,22669,DTXSID30291848,CC(C)COc1ccccc1,"InChI=1S/C10H14O/c1-9(2)8-11-10-6-4-3-5-7-10/h3-7,9H,8H2,1-2H3",ONNUYWHIJSKABC-UHFFFAOYSA-N,?,197.5,103724
103725,1126-78-9,1126-78-9,CCCCNc1ccccc1,N-BUTYLANILINE,N-Butylaniline,N-butylaniline,22670,DTXSID9044370,CCCCNc1ccccc1,"InChI=1S/C10H15N/c1-2-3-9-11-10-7-5-4-6-8-10/h4-8,11H,2-3,9H2,1H3",VSHTWPWTCXQLQN-UHFFFAOYSA-N,?,243.5,103725
103727,1127-76-0,1127-76-0,CCc1cccc2ccccc21,1-ETHYLNAPHTHALENE,,,22672,DTXSID10870852,CCc1cccc2ccccc21,"InChI=1S/C12H12/c1-2-10-7-5-8-11-6-3-4-9-12(10)11/h3-9H,2H2,1H3",ZMXIYERNXPIYFR-UHFFFAOYSA-N,?,258.6,103727
103728,1128-54-7,1128-54-7,Cc1cc[n]([n]1)-c1ccccc1,3-Methyl-1-phenylpyrazole,3-Methyl-1-phenyl-1H-pyrazole,3-Methyl-1-phenylpyrazole,22673,DTXSID40150179,Cc1cc[n]([n]1)-c1ccccc1,"InChI=1S/C10H10N2/c1-9-7-8-12(11-9)10-5-3-2-4-6-10/h2-8H,1H3",RJXLUGSJEMSDPK-UHFFFAOYSA-N,?,255.0,103728
103729,1128-76-3,1128-76-3,CCOC(=O)c1cccc(Cl)c1,"BENZOIC ACID, 3-CHLORO-, ETHYL ESTER",Ethyl 3-chlorobenzoate,Ethyl 3-chlorobenzoate,22674,DTXSID10150181,CCOC(=O)c1cccc(Cl)c1,"InChI=1S/C9H9ClO2/c1-2-12-9(11)7-4-3-5-8(10)6-7/h3-6H,2H2,1H3",LVFRSNCBCHABAM-UHFFFAOYSA-N,?,243.0,103729
103731,1131-16-4,1131-16-4,Cc1cc(C)[n][n]1-c1ccccc1,"1H-Pyrazole, 3,5-dimethyl-1-phenyl-","1H-Pyrazole, 3,5-dimethyl-1-phenyl-","3,5-Dimethyl-1-phenylpyrazole",22676,DTXSID9061546,Cc1cc(C)[n][n]1-c1ccccc1,"InChI=1S/C11H12N2/c1-9-8-10(2)13(12-9)11-6-4-3-5-7-11/h3-8H,1-2H3",ULPMPUPEFBDQQA-UHFFFAOYSA-N,?,273.0,103731
103732,1131-18-6,1131-18-6,Cc1cc(N)[n]([n]1)-c1ccccc1,"1H-Pyrazol-5-amine, 3-methyl-1-phenyl-",3-Methyl-1-phenyl-1H-pyrazol-5-amine,3-methyl-1-phenyl-1H-pyrazol-5-amine,22677,DTXSID6044517,Cc1cc(N)[n]([n]1)-c1ccccc1,"InChI=1S/C10H11N3/c1-8-7-10(11)13(12-8)9-5-3-2-4-6-9/h2-7H,11H2,1H3",FMKMKBLHMONXJM-UHFFFAOYSA-N,?,333.0,103732
103733,1131-60-8,NOCAS_862559,Oc1ccc(cc1)C1CCCCC1,P-CYCLOHEXYLPHENOL,,,22678,DTXSID50862559,Oc1ccc(cc1)C1CCCCC1,"InChI=1S/C12H16O/c13-12-8-6-11(7-9-12)10-4-2-1-3-5-10/h6-10,13H,1-5H2",OAHMVZYHIJQTQC-UHFFFAOYSA-N,?,294.0,103733
103735,1132-39-4,1132-39-4,c1ccccc1[Se]c1ccccc1,Diphenyl selenide,Diphenyl selenide,phenylselanylbenzene,22680,DTXSID8061551,c1ccccc1[Se]c1ccccc1,InChI=1S/C12H10Se/c1-3-7-11(8-4-1)13-12-9-5-2-6-10-12/h1-10H,ORQWTLCYLDRDHK-UHFFFAOYSA-N,?,301.5,103735
103736,1132-66-7,1132-66-7,CCCCCCOc1ccccc1,"BENZENE, (HEXYLOXY)-","Benzene, (hexyloxy)-",C12H18O,22681,DTXSID80333762,CCCCCCOc1ccccc1,"InChI=1S/C12H18O/c1-2-3-4-8-11-13-12-9-6-5-7-10-12/h5-7,9-10H,2-4,8,11H2,1H3",KNRQFACTBMDELK-UHFFFAOYSA-N,?,240.0,103736
103737,1134-62-9,1134-62-9,CCCCc1cc2ccccc2cc1,"NAPHTHALENE, 2-BUTYL-","Naphthalene, 2-butyl-",2-BUTYLNAPHTHALENE,22682,DTXSID30150401,CCCCc1cc2ccccc2cc1,"InChI=1S/C14H16/c1-2-3-6-12-9-10-13-7-4-5-8-14(13)11-12/h4-5,7-11H,2-3,6H2,1H3",UKAMWVYNAVUZEA-UHFFFAOYSA-N,?,292.0,103737
103740,1163-19-5,1163-19-5,Brc1c(Oc2c(Br)c(Br)c(Br)c(Br)c2Br)c(Br)c(Br)c(Br)c1Br,DECABROMODIPHENYL ETHER,Decabromodiphenyl oxide,bis(pentabromophenyl) ether,22684,DTXSID9020376,Brc1c(Oc2c(Br)c(Br)c(Br)c(Br)c2Br)c(Br)c(Br)c(Br)c1Br,InChI=1S/C12Br10O/c13-1-3(15)7(19)11(8(20)4(1)16)23-12-9(21)5(17)2(14)6(18)10(12)22,WHHGLZMJPXIBIX-UHFFFAOYSA-N,?,530.0,103740
103741,1174-72-7,1174-72-7,c1ccccc1O[Si](Oc1ccccc1)(Oc1ccccc1)Oc1ccccc1,"SILICIC ACID (H4SIO4), TETRAPHENYL ESTER",Tetraphenoxysilane,tetraphenyl orthosilicate,22685,DTXSID0026129,c1ccccc1O[Si](Oc1ccccc1)(Oc1ccccc1)Oc1ccccc1,"InChI=1S/C24H20O4Si/c1-5-13-21(14-6-1)25-29(26-22-15-7-2-8-16-22,27-23-17-9-3-10-18-23)28-24-19-11-4-12-20-24/h1-20H",ADLSSRLDGACTEX-UHFFFAOYSA-N,?,417.0,103741
103742,1184-60-7,1184-60-7,CC(=C)F,"1-PROPENE, 2-FLUORO-","1-Propene, 2-fluoro-",2-fluoroprop-1-ene,22686,DTXSID4073251,CC(=C)F,"InChI=1S/C3H5F/c1-3(2)4/h1H2,2H3",NGOCAPPEAVAHQM-UHFFFAOYSA-N,?,-24.0,103742