ChemID,source_casrn,CAS,SMILES,NAME,preferred_name,iupac,MPID,dsstox_substance_id,Canonical_QSARr,InChI_Code_QSARr,InChI Key_QSARr,Salt_Solvent,BP,ID
103508,926-65-8,926-65-8,CC(C)OC=C,"Propane, 2-(ethenyloxy)-","Propane, 2-(ethenyloxy)-",2-ethenoxypropane,22469,DTXSID0061292,CC(C)OC=C,"InChI=1S/C5H10O/c1-4-6-5(2)3/h4-5H,1H2,2-3H3",GNUGVECARVKIPH-UHFFFAOYSA-N,?,55.5,103508
103510,927-49-1,927-49-1,CCCCCC(=O)CCCCC,6-UNDECANONE,6-Undecanone,undecan-6-one,22471,DTXSID5061295,CCCCCC(=O)CCCCC,"InChI=1S/C11H22O/c1-3-5-7-9-11(12)10-8-6-4-2/h3-10H2,1-2H3",ZPQAKYPOZRXKFA-UHFFFAOYSA-N,?,228.0,103510
103511,927-62-8,927-62-8,CCCCN(C)C,DIMETHYLBUTYLAMINE,"N,N-Dimethylbutylamine",C6H15N,22472,DTXSID8047472,CCCCN(C)C,"InChI=1S/C6H15N/c1-4-5-6-7(2)3/h4-6H2,1-3H3",DJEQZVQFEPKLOY-UHFFFAOYSA-N,?,95.0,103511
103512,927-68-4,927-68-4,CC(=O)OCCBr,"ETHANOL, 2-BROMO-, ACETATE",,,22473,DTXSID70878738,CC(=O)OCCBr,"InChI=1S/C4H7BrO2/c1-4(6)7-3-2-5/h2-3H2,1H3",RGHQKFQZGLKBCF-UHFFFAOYSA-N,?,162.5,103512
103514,927-74-2,927-74-2,C#CCCO,3-Butyn-1-ol,3-Butyn-1-ol,but-3-yn-1-ol,22475,DTXSID1022136,C#CCCO,"InChI=1S/C4H6O/c1-2-3-4-5/h1,5H,3-4H2",OTJZCIYGRUNXTP-UHFFFAOYSA-N,?,129.0,103514
103515,927-80-0,927-80-0,CCOC#C,Ethoxy-ethyne,"Ether, ethyl ethynyl",Ethoxyethyne,22476,DTXSID80239114,CCOC#C,"InChI=1S/C4H6O/c1-3-5-4-2/h1H,4H2,2H3",WMYNMYVRWWCRPS-UHFFFAOYSA-N,?,50.0,103515
103516,928-40-5,NOCAS_870799,CC(O)CCCCO,"2,6-Dihydroxyhexane",,,22477,DTXSID90870799,CC(O)CCCCO,"InChI=1S/C6H14O2/c1-6(8)4-2-3-5-7/h6-8H,2-5H2,1H3",UNVGBIALRHLALK-UHFFFAOYSA-N,?,237.0,103516
103518,928-49-4,928-49-4,CCC#CCC,3-Hexyne,Hex-3-yne,Hex-3-yne,22479,DTXSID30239144,CCC#CCC,"InChI=1S/C6H10/c1-3-5-6-4-2/h3-4H2,1-2H3",DQQNMIPXXNPGCV-UHFFFAOYSA-N,?,81.0,103518
103519,928-50-7,928-50-7,C=CCCCCl,"1-PENTENE, 5-CHLORO-",5-Chloro-1-pentene,C5H9Cl,22480,DTXSID60335143,C=CCCCCl,"InChI=1S/C5H9Cl/c1-2-3-4-5-6/h2H,1,3-5H2",UPOBJNRMUDPATE-UHFFFAOYSA-N,?,105.0,103519
103520,928-55-2,NOCAS_870800,CC=COCC,"Ether, ethyl propenyl",,,22481,DTXSID40870800,CC=COCC,"InChI=1S/C5H10O/c1-3-5-6-4-2/h3,5H,4H2,1-2H3/b5-3+",XDHOEHJVXXTEDV-HWKANZROSA-N,?,71.5,103520
103522,928-68-7,928-68-7,CC(C)CCCC(C)=O,"2-Heptanone, 6-methyl-","2-Heptanone, 6-methyl-",6-Methylheptan-2-one,22483,DTXSID7061302,CC(C)CCCC(C)=O,"InChI=1S/C8H16O/c1-7(2)5-4-6-8(3)9/h7H,4-6H2,1-3H3",DPLGXGDPPMLJHN-UHFFFAOYSA-N,?,167.0,103522
103523,928-80-3,928-80-3,CCCCCCCC(=O)CC,3-DECANONE,3-Decanone,decan-3-one,22484,DTXSID2061303,CCCCCCCC(=O)CC,"InChI=1S/C10H20O/c1-3-5-6-7-8-9-10(11)4-2/h3-9H2,1-2H3",XJLDYKIEURAVBW-UHFFFAOYSA-N,?,203.0,103523
103524,928-92-7,928-92-7,C/C=C/CCCO,"4-Hexen-1-ol, (E)-",,,22485,DTXSID40878841,CC=CCCCO,"InChI=1S/C6H12O/c1-2-3-4-5-6-7/h2-3,7H,4-6H2,1H3/b3-2+",VTIODUHBZHNXFP-NSCUHMNNSA-N,?,159.0,103524
103528,929-06-6,929-06-6,NCCOCCO,2-(2-Aminoethoxy)ethanol,2-(2-Aminoethoxy)ethanol,2-(2-aminoethoxy)ethanol,22489,DTXSID6027341,NCCOCCO,"InChI=1S/C4H11NO2/c5-1-3-7-4-2-6/h6H,1-5H2",GIAFURWZWWWBQT-UHFFFAOYSA-N,?,221.0,103528
103529,929-37-3,929-37-3,C=COCCOCCO,"Ethanol, 2-(2-(ethenyloxy)ethoxy)- (9CI)",Diethylene glycol monovinyl ether,2-(2-ethenoxyethoxy)ethanol,22490,DTXSID9075456,C=COCCOCCO,"InChI=1S/C6H12O3/c1-2-8-5-6-9-4-3-7/h2,7H,1,3-6H2",WULAHPYSGCVQHM-UHFFFAOYSA-N,?,196.0,103529
103530,930-18-7|2402-06-4,NOCAS_870801,CC1CC1C,"CYCLOPROPANE, 1,2-DIMETHYL-, CIS-, CYCLOPROPANE, 1,2-DIMETHYL-, TRANS-",,,22491|23208,DTXSID00870801,CC1CC1C,"InChI=1S/C5H10/c1-4-3-5(4)2/h4-5H,3H2,1-2H3",VKJLDXGFBJBTRQ-UHFFFAOYSA-N,?,32.6,103530
103532,930-27-8,930-27-8,Cc1cocc1,3-METHYLFURAN,3-Methylfuran,3-METHYLFURAN,22493,DTXSID10239228,Cc1cocc1,"InChI=1S/C5H6O/c1-5-2-3-6-4-5/h2-4H,1H3",KJRRQXYWFQKJIP-UHFFFAOYSA-N,?,66.0,103532
103533,930-28-9,930-28-9,ClC1CCCC1,"CYCLOPENTANE, CHLORO-","Cyclopentane, chloro-",Chlorocyclopentane,22494,DTXSID7061306,ClC1CCCC1,"InChI=1S/C5H9Cl/c6-5-3-1-2-4-5/h5H,1-4H2",NDTCXABJQNJPCF-UHFFFAOYSA-N,?,114.0,103533
103534,930-30-3,NOCAS_870802,O=C1CCC=C1,2-CYCLOPENTEN-1-ONE,,,22495,DTXSID60870802,O=C1CCC=C1,"InChI=1S/C5H6O/c6-5-3-1-2-4-5/h1,3H,2,4H2",BZKFMUIJRXWWQK-UHFFFAOYSA-N,?,136.0,103534
103536,930-37-0,930-37-0,COCC1CO1,"Oxirane, (methoxymethyl)-",Methyl glycidyl ether,2-(methoxymethyl)oxirane,22497,DTXSID9025613,COCC1CO1,"InChI=1S/C4H8O2/c1-5-2-4-3-6-4/h4H,2-3H2,1H3",LKMJVFRMDSNFRT-UHFFFAOYSA-N,?,113.0,103536
103537,930-55-2,930-55-2,O=NN1CCCC1,N-NITROSOPYRROLIDINE,N-Nitrosopyrrolidine,1-nitrosopyrrolidine,22498,DTXSID8021062,O=NN1CCCC1,InChI=1S/C4H8N2O/c7-5-6-3-1-2-4-6/h1-4H2,WNYADZVDBIBLJJ-UHFFFAOYSA-N,?,214.0,103537
103538,930-62-1,930-62-1,Cc1[nH]c(C)c[n]1,"2,4-Dimethyl-1H-imidazole","2,4-Dimethyl-1H-imidazole","2,4-dimethyl-3H-imidazole",22499,DTXSID40239236,Cc1[nH]c(C)c[n]1,"InChI=1S/C5H8N2/c1-4-3-6-5(2)7-4/h3H,1-2H3,(H,6,7)",LLPKQRMDOFYSGZ-UHFFFAOYSA-N,?,267.0,103538
103540,930-68-7,930-68-7,O=C1CCCC=C1,2-CYCLOHEXENE-1-ONE,2-Cyclohexen-1-one,cyclohex-2-en-1-one,22501,DTXSID1024881,O=C1CCCC=C1,"InChI=1S/C6H8O/c7-6-4-2-1-3-5-6/h2,4H,1,3,5H2",FWFSEYBSWVRWGL-UHFFFAOYSA-N,?,170.0,103540
103541,930-87-0,930-87-0,C[n]1c(C)ccc1C,"1,2,5-Trimethylpyrrole","1,2,5-Trimethylpyrrole","1,2,5-Trimethylpyrrole",22502,DTXSID20239239,C[n]1c(C)ccc1C,"InChI=1S/C7H11N/c1-6-4-5-7(2)8(6)3/h4-5H,1-3H3",YRABRACUKBOTKB-UHFFFAOYSA-N,?,171.0,103541
103542,930-89-2|930-90-5,930-90-5,C[C@@H]1CCC[C@H]1CC,"CYCLOPENTANE, 1-ETHYL-2-METHYL-, CIS-, 1-METHYL-2-ETHYLCYCLOPENTANE (TRANS)","Cyclopentane, 1-ethyl-2-methyl-, (1R,2R)-rel-","(1R,2R)-1-ethyl-2-methylcyclopentane",22503|22504,DTXSID2075055,CC1CCCC1CC,"InChI=1S/C8H16/c1-3-8-6-4-5-7(8)2/h7-8H,3-6H2,1-2H3",BSKOLJVTLRLTHE-UHFFFAOYSA-N,?,124.6,103542
103545,931-56-6,931-56-6,COC1CCCCC1,"CYCLOHEXANE, METHOXY-",Cyclohexyl methyl ether,METHOXYCYCLOHEXANE,22506,DTXSID10239268,COC1CCCCC1,"InChI=1S/C7H14O/c1-8-7-5-3-2-4-6-7/h7H,2-6H2,1H3",GHDIHPNJQVDFBL-UHFFFAOYSA-N,?,133.0,103545
103546,931-87-3,931-88-4,C1CCCCCC=C1,Cyclooctene,Cyclooctene,?,22507,DTXSID1061310,C1CCCCCC=C1,"InChI=1S/C8H14/c1-2-4-6-8-7-5-3-1/h1-2H,3-8H2/b2-1-",URYYVOIYTNXXBN-UPHRSURJSA-N,?,138.0,103546
103547,932-56-9,NOCAS_870804,CC1CCCCCC1=O,"CYCLOHEPTANONE, 2-METHYL-",2-Methylcycloheptanone,C8H14O,22508,DTXSID80870804,CC1CCCCCC1=O,"InChI=1S/C8H14O/c1-7-5-3-2-4-6-8(7)9/h7H,2-6H2,1H3",FDMAFOTXGNYBFG-UHFFFAOYSA-N,?,185.0,103547
103549,932-96-7,932-96-7,CNc1ccc(Cl)cc1,4-CHLOR-N-METHYLANILIN,4-Chloro-N-methylaniline,4-Chloro-N-methylaniline,22510,DTXSID80239331,CNc1ccc(Cl)cc1,"InChI=1S/C7H8ClN/c1-9-7-4-2-6(8)3-5-7/h2-5,9H,1H3",XCEYKKJMLOFDSS-UHFFFAOYSA-N,?,240.0,103549
103551,933-67-5,933-67-5,Cc1cccc2cc[nH]c21,7-METHYLINDOLE,7-Methylindole,7-methyl-1H-indole,22512,DTXSID60239374,Cc1cccc2cc[nH]c21,"InChI=1S/C9H9N/c1-7-3-2-4-8-5-6-10-9(7)8/h2-6,10H,1H3",KGWPHCDTOLQQEP-UHFFFAOYSA-N,?,266.0,103551
103552,933-88-0,933-88-0,Cc1ccccc1C(=O)Cl,"Benzoyl chloride, 2-methyl-","Benzoyl chloride, 2-methyl-",2-methylbenzoyl chloride,22513,DTXSID1061314,Cc1ccccc1C(=O)Cl,"InChI=1S/C8H7ClO/c1-6-4-2-3-5-7(6)8(9)10/h2-5H,1H3",GPZXFICWCMCQPF-UHFFFAOYSA-N,?,213.5,103552
103554,934-34-9,934-34-9,Oc1[n]c2ccccc2[s]1,S-ORTHOPHENYLENETHIOCARBAMATE,2(3H)-Benzothiazolone,,22515,DTXSID6061315,Oc1[n]c2ccccc2[s]1,"InChI=1S/C7H5NOS/c9-7-8-5-3-1-2-4-6(5)10-7/h1-4H,(H,8,9)",YEDUAINPPJYDJZ-UHFFFAOYSA-N,?,360.0,103554
103555,934-74-7,934-74-7,CCc1cc(C)cc(C)c1,"1,3-DIMETHYL-5-ETHYLBENZENE","1,3-Dimethyl-5-ethylbenzene","1-Ethyl-3,5-dimethylbenzene",22516,DTXSID1061316,CCc1cc(C)cc(C)c1,"InChI=1S/C10H14/c1-4-10-6-8(2)5-9(3)7-10/h5-7H,4H2,1-3H3",LMAUULKNZLEMGN-UHFFFAOYSA-N,?,183.6,103555
103556,934-80-5,934-80-5,CCc1cc(C)c(C)cc1,"4-ETHYL-1,2-DIMETHYLBENZENE","1,2-Dimethyl-4-ethylbenzene","4-Ethyl-1,2-dimethylbenzene",22517,DTXSID6061317,CCc1cc(C)c(C)cc1,"InChI=1S/C10H14/c1-4-10-6-5-8(2)9(3)7-10/h5-7H,4H2,1-3H3",SBUYFICWQNHBCM-UHFFFAOYSA-N,?,189.5,103556
103558,935-31-9,NOCAS_870806,C1CCCCCCCC=C1,"CYCLODECENE, (Z)-",,,22519,DTXSID00870806,C1CCCCCCCC=C1,"InChI=1S/C10H18/c1-2-4-6-8-10-9-7-5-3-1/h1-2H,3-10H2/b2-1-",UCIYGNATMHQYCT-UPHRSURJSA-N,?,195.0,103558
103559,936-53-8,936-53-8,C1CN(N=C1)c1ccccc1,"1H-PYRAZOLE, 4,5-DIHYDRO-1-PHENYL-","1-Phenyl-4,5-dihydro-1H-pyrazole",C9H10N2,22520,DTXSID30343412,C1CN(N=C1)c1ccccc1,"InChI=1S/C9H10N2/c1-2-5-9(6-3-1)11-8-4-7-10-11/h1-3,5-7H,4,8H2",IUHNMXNPPUIQHZ-UHFFFAOYSA-N,?,273.0,103559
103560,937-20-2,937-20-2,O=C(CCl)c1ccc(Cl)cc1,"2,4'-Dichloroacetophenone","2,4'-Dichloroacetophenone",,22521,DTXSID50239540,O=C(CCl)c1ccc(Cl)cc1,"InChI=1S/C8H6Cl2O/c9-5-8(11)6-1-3-7(10)4-2-6/h1-4H,5H2",FWDFNLVLIXAOMX-UHFFFAOYSA-N,?,270.0,103560
103562,938-33-0,938-33-0,COc1cccc2ccc[n]c21,8-METHOXYQUINOLINE,Methyl 8-quinolyl ether,8-Methoxyquinoline,22523,DTXSID00239656,COc1cccc2ccc[n]c21,"InChI=1S/C10H9NO/c1-12-9-6-2-4-8-5-3-7-11-10(8)9/h2-7H,1H3",ZLKGGEBOALGXJZ-UHFFFAOYSA-N,?,283.0,103562
103563,939-23-1,939-23-1,c1cc(cc[n]1)-c1ccccc1,4-PHENYLPYRIDINE,4-Phenylpyridine,4-phenylpyridine,22524,DTXSID5022140,c1cc(cc[n]1)-c1ccccc1,InChI=1S/C11H9N/c1-2-4-10(5-3-1)11-6-8-12-9-7-11/h1-9H,JVZRCNQLWOELDU-UHFFFAOYSA-N,?,281.0,103563
103564,939-27-5,939-27-5,CCc1cc2ccccc2cc1,2-ETHYLNAPHTHALENE,2-Ethylnaphthalene,2-Ethylnaphthalene,22525,DTXSID9061330,CCc1cc2ccccc2cc1,"InChI=1S/C12H12/c1-2-10-7-8-11-5-3-4-6-12(11)9-10/h3-9H,2H2,1H3",RJTJVVYSTUQWNI-UHFFFAOYSA-N,?,258.0,103564
103566,940-31-8,1912-23-8,C[C@H](Oc1ccccc1)C(O)=O,2-Phenoxypropionic acid,(S)-2-Phenoxypropionic acid,C9H10O3,22527,DTXSID50354540,CC(Oc1ccccc1)C(O)=O,"InChI=1S/C9H10O3/c1-7(9(10)11)12-8-5-3-2-4-6-8/h2-7H,1H3,(H,10,11)",SXERGJJQSKIUIC-UHFFFAOYSA-N,?,266.0,103566
103567,940-41-0,940-41-0,Cl[Si](Cl)(Cl)CCc1ccccc1,"Silane, trichloro(2-phenylethyl)-",Trichloro(2-phenylethyl)silane,trichloro(2-phenylethyl)silane,22528,DTXSID9052632,Cl[Si](Cl)(Cl)CCc1ccccc1,"InChI=1S/C8H9Cl3Si/c9-12(10,11)7-6-8-4-2-1-3-5-8/h1-5H,6-7H2",FMYXZXAKZWIOHO-UHFFFAOYSA-N,?,242.0,103567
103568,940-49-8,940-49-8,CC(C)COCc1ccccc1,Isobutyl benzyl ether,alpha-Isobutoxytoluene,2-methylpropoxymethylbenzene,22529,DTXSID10240192,CC(C)COCc1ccccc1,"InChI=1S/C11H16O/c1-10(2)8-12-9-11-6-4-3-5-7-11/h3-7,10H,8-9H2,1-2H3",ADHMUPZYLITZIH-UHFFFAOYSA-N,?,212.0,103568
103570,942-01-8,942-01-8,C1CCCc2[nH]c3ccccc3c21,"1H-CARBAZOLE, 2,3,4,9-TETRAHYDRO-","1,2,3,4-Tetrahydrocarbazole","2,3,4,9-Tetrahydro-1H-carbazole",22531,DTXSID00240969,C1CCCc2[nH]c3ccccc3c21,"InChI=1S/C12H13N/c1-3-7-11-9(5-1)10-6-2-4-8-12(10)13-11/h1,3,5,7,13H,2,4,6,8H2",XKLNOVWDVMWTOB-UHFFFAOYSA-N,?,327.5,103570
103571,942-06-3,942-06-3,O=C1OC(=O)c2cc(Cl)c(Cl)cc12,"5,6-Dichloro-isobenzofuran-1,3-dione","4,5-Dichlorophthalic anhydride","5,6-dichloro-2-benzofuran-1,3-dione",22532,DTXSID10240970,O=C1OC(=O)c2cc(Cl)c(Cl)cc12,InChI=1S/C8H2Cl2O3/c9-5-1-3-4(2-6(5)10)8(12)13-7(3)11/h1-2H,ULSOWUBMELTORB-UHFFFAOYSA-N,?,313.0,103571
103572,942-92-7,942-92-7,CCCCCC(=O)c1ccccc1,"1-Hexanone, 1-phenyl-",Hexanophenone,1-phenylhexan-1-one,22533,DTXSID4061335,CCCCCC(=O)c1ccccc1,"InChI=1S/C12H16O/c1-2-3-5-10-12(13)11-8-6-4-7-9-11/h4,6-9H,2-3,5,10H2,1H3",MAHPVQDVMLWUAG-UHFFFAOYSA-N,?,265.0,103572
103574,947-84-2,NOCAS_870814,OC(=O)c1ccccc1-c1ccccc1,"[1,1'-BIPHENYL]-2-CARBOXYLIC ACID",,,22535,DTXSID30870814,OC(=O)c1ccccc1-c1ccccc1,"InChI=1S/C13H10O2/c14-13(15)12-9-5-4-8-11(12)10-6-2-1-3-7-10/h1-9H,(H,14,15)",ILYSAKHOYBPSPC-UHFFFAOYSA-N,?,343.5,103574
103575,948-32-3,948-32-3,CC(C)c1ccc(cc1C(C)C)C(C)C,"Benzene, 1,2,4-tris(1-methylethyl)-","1,2,4-Triisopropylbenzene","1,2,4-tri(propan-2-yl)benzene",22536,DTXSID3061342,CC(C)c1ccc(cc1C(C)C)C(C)C,"InChI=1S/C15H24/c1-10(2)13-7-8-14(11(3)4)15(9-13)12(5)6/h7-12H,1-6H3",RWGMANKDYBWNNP-UHFFFAOYSA-N,?,244.0,103575
103577,949-87-1,NOCAS_870815,Cc1ccc(cc1)N=Nc1ccccc1,(4-METHYLPHENYL)PHENYLDIAZENE,,,22537,DTXSID90870815,Cc1ccc(cc1)N=Nc1ccccc1,"InChI=1S/C13H12N2/c1-11-7-9-13(10-8-11)15-14-12-5-3-2-4-6-12/h2-10H,1H3/b15-14+",GIJSVMOPNUOZBC-CCEZHUSRSA-N,?,312.0,103577
103584,994-05-8,994-05-8,CCC(C)(C)OC,METHYL-T-AMYL ETHER,tert-Amyl methyl ether,2-methoxy-2-methylbutane,22539,DTXSID8024521,CCC(C)(C)OC,"InChI=1S/C6H14O/c1-5-6(2,3)7-4/h5H2,1-4H3",HVZJRWJGKQPSFL-UHFFFAOYSA-N,?,86.3,103584
103585,994-30-9,994-30-9,CC[Si](Cl)(CC)CC,CHLOROTRIETHYLSILANE,"Silane, chlorotriethyl-",chloro-triethylsilane,22540,DTXSID6061361,CC[Si](Cl)(CC)CC,"InChI=1S/C6H15ClSi/c1-4-8(7,5-2)6-3/h4-6H2,1-3H3",DCFKHNIGBAHNSS-UHFFFAOYSA-N,?,144.5,103585
103586,994-49-0,994-49-0,CC[Si](CC)(CC)O[Si](CC)(CC)CC,"DISILOXANE, HEXAETHYL-","Disiloxane, hexaethyl-",triethyl-triethylsilyloxysilane,22541,DTXSID1061362,CC[Si](CC)(CC)O[Si](CC)(CC)CC,"InChI=1S/C12H30OSi2/c1-7-14(8-2,9-3)13-15(10-4,11-5)12-6/h7-12H2,1-6H3",WILBTFWIBAOWLN-UHFFFAOYSA-N,?,233.0,103586
103589,998-30-1,998-30-1,CCO[SiH](OCC)OCC,Triethoxysilane,Triethoxysilane,triethoxysilane,22543,DTXSID6052667,CCO[SiH](OCC)OCC,"InChI=1S/C6H16O3Si/c1-4-7-10(8-5-2)9-6-3/h10H,4-6H2,1-3H3",QQQSFSZALRVCSZ-UHFFFAOYSA-N,?,133.5,103589
103590,999-52-0,NOCAS_870825,CCCCC(Cl)CC,3-Chloroheptane,,,22544,DTXSID40870825,CCCCC(Cl)CC,"InChI=1S/C7H15Cl/c1-3-5-6-7(8)4-2/h7H,3-6H2,1-2H3",DMKNOEJJJSHSML-UHFFFAOYSA-N,?,144.0,103590
103591,999-97-3,999-97-3,C[Si](C)(C)N[Si](C)(C)C,HEXAMETHYLDISILIZANE,Hexamethyldisilazane,"1,1,1-trimethyl-N-(trimethylsilyl)silanamine",22545,DTXSID2025395,C[Si](C)(C)N[Si](C)(C)C,"InChI=1S/C6H19NSi2/c1-8(2,3)7-9(4,5)6/h7H,1-6H3",FFUAGWLWBBFQJT-UHFFFAOYSA-N,?,125.0,103591
103594,1000-70-0,1000-70-0,C[Si](C)(C)N=C=N[Si](C)(C)C,"Silanamine, N,N'-methanetetraylbis(1,1,1-trimeth","Silanamine, N,N'-methanetetraylbis[1,1,1-trimethyl-","N,N'-bis(trimethylsilyl)methanediimine",22547,DTXSID0061379,C[Si](C)(C)N=C=N[Si](C)(C)C,"InChI=1S/C7H18N2Si2/c1-10(2,3)8-7-9-11(4,5)6/h1-6H3",KSVMTHKYDGMXFJ-UHFFFAOYSA-N,?,164.0,103594
103595,1000-86-8,1000-86-8,CC(C)=CC(C)=C,"1,3-PENTADIENE, 2,4-DIMETHYL-","2,4-Dimethylpenta-1,3-diene","2,4-Dimethylpenta-1,3-diene",22548,DTXSID60142854,CC(C)=CC(C)=C,"InChI=1S/C7H12/c1-6(2)5-7(3)4/h5H,1H2,2-4H3",CMSUNVGIWAFNBG-UHFFFAOYSA-N,?,93.2,103595
103596,1001-55-4,1001-55-4,CC(=O)OCC#N,(ACETYLOXY)ACETONITRILE,(Acetyloxy)acetonitrile,Cyanomethyl acetate,22549,DTXSID00142939,CC(=O)OCC#N,"InChI=1S/C4H5NO2/c1-4(6)7-3-2-5/h3H2,1H3",AJEHNBIPLQJTNU-UHFFFAOYSA-N,?,200.0,103596
103598,1002-28-4,1002-28-4,CCC#CCCO,3-Hexyn-1-ol,3-Hexyn-1-ol,hex-3-yn-1-ol,22551,DTXSID4061385,CCC#CCCO,"InChI=1S/C6H10O/c1-2-3-4-5-6-7/h7H,2,5-6H2,1H3",ODEHKVYXWLXRRR-UHFFFAOYSA-N,?,163.0,103598
103599,1002-69-3,1002-69-3,CCCCCCCCCCCl,1-CHLORODECANE,1-Chlorodecane,1-chlorodecane,22552,DTXSID5027352,CCCCCCCCCCCl,"InChI=1S/C10H21Cl/c1-2-3-4-5-6-7-8-9-10-11/h2-10H2,1H3",ZTEHOZMYMCEYRM-UHFFFAOYSA-N,?,223.4,103599
103600,1002-84-2,1002-84-2,CCCCCCCCCCCCCCC(O)=O,PENTADECANOIC ACID,Pentadecanoic acid,pentadecanoic acid,22553,DTXSID2021652,CCCCCCCCCCCCCCC(O)=O,"InChI=1S/C15H30O2/c1-2-3-4-5-6-7-8-9-10-11-12-13-14-15(16)17/h2-14H2,1H3,(H,16,17)",WQEPLUUGTLDZJY-UHFFFAOYSA-N,?,339.1,103600
103602,1003-09-4,1003-09-4,Brc1ccc[s]1,2-BROMOTHIOPHENE,"Thiophene, 2-bromo-",2-Bromothiophene,22555,DTXSID4061389,Brc1ccc[s]1,InChI=1S/C4H3BrS/c5-4-2-1-3-6-4/h1-3H,TUCRZHGAIRVWTI-UHFFFAOYSA-N,?,150.0,103602
103603,1003-29-8,1003-29-8,O=Cc1ccc[nH]1,PYRROLE-2-CARBOXALDEHYDE,1H-Pyrrole-2-carboxaldehyde,1H-pyrrole-2-carbaldehyde,22556,DTXSID3061392,O=Cc1ccc[nH]1,"InChI=1S/C5H5NO/c7-4-5-2-1-3-6-5/h1-4,6H",ZSKGQVFRTSEPJT-UHFFFAOYSA-N,?,218.0,103603
103604,1003-30-1,NOCAS_870826,CCC1CCCO1,"Furan, 2-ethyltetrahydro-",,,22557,DTXSID00870826,CCC1CCCO1,"InChI=1S/C6H12O/c1-2-6-4-3-5-7-6/h6H,2-5H2,1H3",IHMXVSZXHFTOFN-UHFFFAOYSA-N,?,109.0,103604
103606,1003-56-1,1003-56-1,CC1=CC=CNC1=O,"2(1H)-PYRIDINONE, 3-METHYL-",3-Methyl-2-pyridone,3-methyl-1H-pyridin-2-one,22559,DTXSID50143118,CC1=CC=CNC1=O,"InChI=1S/C6H7NO/c1-5-3-2-4-7-6(5)8/h2-4H,1H3,(H,7,8)",MVKDNXIKAWKCCS-UHFFFAOYSA-N,?,289.0,103606
103607,1003-64-1,1003-64-1,CC=C1CCCCC1,"CYCLOHEXANE, ETHYLIDENE-","Cyclohexane, ethylidene-",Ethylidenecyclohexane,22560,DTXSID10143119,CC=C1CCCCC1,"InChI=1S/C8H14/c1-2-8-6-4-3-5-7-8/h2H,3-7H2,1H3",BPBOWYWUOUJKLO-UHFFFAOYSA-N,?,136.0,103607
103609,1004-36-0,1004-36-0,CC1=CC(=O)C=C(C)O1,"GAMMA-2,6-DIMETHYLPYRONE","2,6-Dimethyl-4H-pyran-4-one","2,6-dimethylpyran-4-one",22561,DTXSID6074415,CC1=CC(=O)C=C(C)O1,"InChI=1S/C7H8O2/c1-5-3-7(8)4-6(2)9-5/h3-4H,1-2H3",VSYFZULSKMFUJJ-UHFFFAOYSA-N,?,251.0,103609
103611,1005-64-7,NOCAS_862433,CCC=Cc1ccccc1,1-BUTENYLBENZENE,,,22563,DTXSID50862433,CCC=Cc1ccccc1,"InChI=1S/C10H12/c1-2-3-7-10-8-5-4-6-9-10/h3-9H,2H2,1H3/b7-3+",MPMBRWOOISTHJV-XVNBXDOJSA-N,?,198.7,103611
103612,1005-67-0,1005-67-0,CCCCN1CCOCC1,"Morpholine, 4-butyl-",4-Butylmorpholine,4-butylmorpholine,22564,DTXSID5044499,CCCCN1CCOCC1,"InChI=1S/C8H17NO/c1-2-3-4-9-5-7-10-8-6-9/h2-8H2,1H3",LMRKVKPRHROQRR-UHFFFAOYSA-N,?,213.5,103612
103613,1007-26-7,1007-26-7,CC(C)(C)Cc1ccccc1,Neopentyl benzene,"Benzene, (2,2-dimethylpropyl)-","2,2-dimethylpropylbenzene",22565,DTXSID40143460,CC(C)(C)Cc1ccccc1,"InChI=1S/C11H16/c1-11(2,3)9-10-7-5-4-6-8-10/h4-8H,9H2,1-3H3",CJGXJKVMUHXVHL-UHFFFAOYSA-N,?,186.0,103613
103615,1008-76-0,NOCAS_870831,O=C1CCC(O1)c1ccccc1,"2(3H)-Furanone, 4,5-dihydro-5-phenyl-",,,22567,DTXSID50870831,O=C1CCC(O1)c1ccccc1,"InChI=1S/C10H10O2/c11-10-7-6-9(12-10)8-4-2-1-3-5-8/h1-5,9H,6-7H2",AEUULUMEYIPECD-UHFFFAOYSA-N,?,306.0,103615
103616,1008-88-4,1008-88-4,c1[n]cccc1-c1ccccc1,3-PHENYLPYRIDINE,3-Phenylpyridine,3-PHENYLPYRIDINE,22568,DTXSID0061404,c1[n]cccc1-c1ccccc1,InChI=1S/C11H9N/c1-2-5-10(6-3-1)11-7-4-8-12-9-11/h1-9H,HJKGBRPNSJADMB-UHFFFAOYSA-N,?,272.0,103616
103617,1008-89-5,1008-89-5,c1ccccc1-c1cccc[n]1,2-PHENYLPYRIDINE,"Pyridine, 2-phenyl-",2-PHENYLPYRIDINE,22569,DTXSID6074417,c1ccccc1-c1cccc[n]1,InChI=1S/C11H9N/c1-2-6-10(7-3-1)11-8-4-5-9-12-11/h1-9H,VQGHOUODWALEFC-UHFFFAOYSA-N,?,271.0,103617
103619,1009-93-4,1009-93-4,C[Si]1(C)N[Si](C)(C)N[Si](C)(C)N1,"CYCLOTRISILAZANE, 2,2,4,4,6,6-HEXAMETHYL-","2,2,4,4,6,6-Hexamethyl-1,3,5,2,4,6-triazatrisilinane","2,2,4,4,6,6-hexamethyl-1,3,5,2,4,6-triazatrisilinane",22571,DTXSID4037748,C[Si]1(C)N[Si](C)(C)N[Si](C)(C)N1,"InChI=1S/C6H21N3Si3/c1-10(2)7-11(3,4)9-12(5,6)8-10/h7-9H,1-6H3",WGGNJZRNHUJNEM-UHFFFAOYSA-N,?,188.0,103619
103620,1012-72-2,1012-72-2,CC(C)(C)c1ccc(cc1)C(C)(C)C,"Benzene, 1,4-bis(1,1-dimethylethyl)-",p-Di-tert-butylbenzene,"1,4-ditert-butylbenzene",22572,DTXSID4061410,CC(C)(C)c1ccc(cc1)C(C)(C)C,"InChI=1S/C14H22/c1-13(2,3)11-7-9-12(10-8-11)14(4,5)6/h7-10H,1-6H3",OOWNNCMFKFBNOF-UHFFFAOYSA-N,?,238.0,103620
103622,1014-69-3,1014-69-3,CNc1[n]c([n]c(NC(C)C)[n]1)SC,DESMETRYNE,Desmetryn,"N-methyl-6-(methylsulfanyl)-N'-(propan-2-yl)-1,3,5-triazine-2,4-diamine",22573,DTXSID6041842,CNc1[n]c([n]c(NC(C)C)[n]1)SC,"InChI=1S/C8H15N5S/c1-5(2)10-7-11-6(9-3)12-8(13-7)14-4/h5H,1-4H3,(H2,9,10,11,12,13)",HCRWJJJUKUVORR-UHFFFAOYSA-N,?,345.0,103622
103626,1067-08-9,1067-08-9,CC(CC)(CC)CC,3-METHYL-3-ETHYLPENTANE,"Pentane, 3-ethyl-3-methyl-",3-Ethyl-3-methylpentane,22575,DTXSID9074690,CC(CC)(CC)CC,"InChI=1S/C8H18/c1-5-8(4,6-2)7-3/h5-7H2,1-4H3",GIEZWIDCIFCQPS-UHFFFAOYSA-N,?,118.2,103626
103627,1067-20-5,1067-20-5,CCC(CC)(CC)CC,"3,3-DIETHYLPENTANE","Pentane, 3,3-diethyl-","3,3-Diethylpentane",22576,DTXSID1073941,CCC(CC)(CC)CC,"InChI=1S/C9H20/c1-5-9(6-2,7-3)8-4/h5-8H2,1-4H3",BGXXXYLRPIRDHJ-UHFFFAOYSA-N,?,146.3,103627
103628,1068-19-5,1068-19-5,CC(C)(CCC)CCC,"HEPTANE, 4,4-DIMETHYL-","Heptane, 4,4-dimethyl-","4,4-Dimethylheptane",22577,DTXSID50147772,CC(C)(CCC)CCC,"InChI=1S/C9H20/c1-5-7-9(3,4)8-6-2/h5-8H2,1-4H3",WSOKFYJGNBQDPW-UHFFFAOYSA-N,?,135.2,103628
103630,1069-53-0,NOCAS_870833,CC(C)C(C)CC(C)C,"2,3,5-TRIMETHYLHEXANE",,,22579,DTXSID70870833,CC(C)C(C)CC(C)C,"InChI=1S/C9H20/c1-7(2)6-9(5)8(3)4/h7-9H,6H2,1-5H3",ODGLTLJZCVNPBU-UHFFFAOYSA-N,?,131.4,103630
103631,1070-78-6,1070-78-6,ClCCC(Cl)(Cl)Cl,"Propane, 1,1,1,3-tetrachloro-","1,1,1,3-Tetrachloropropane","1,1,1,3-tetrachloropropane",22580,DTXSID8051546,ClCCC(Cl)(Cl)Cl,"InChI=1S/C3H4Cl4/c4-2-1-3(5,6)7/h1-2H2",UTACNSITJSJFHA-UHFFFAOYSA-N,?,157.0,103631
103632,1070-83-3,1070-83-3,CC(C)(C)CC(O)=O,"Butanoic acid, 3,3-dimethyl-","Butanoic acid, 3,3-dimethyl-","3,3-Dimethylbutanoic acid",22581,DTXSID0061450,CC(C)(C)CC(O)=O,"InChI=1S/C6H12O2/c1-6(2,3)4-5(7)8/h4H2,1-3H3,(H,7,8)",MLMQPDHYNJCQAO-UHFFFAOYSA-N,?,190.0,103632