ChemID,source_casrn,CAS,SMILES,NAME,preferred_name,iupac,MPID,dsstox_substance_id,Canonical_QSARr,InChI_Code_QSARr,InChI Key_QSARr,Salt_Solvent,Salt_Solvent_ID,MP,ID
108135,10116-22-0,10116-22-0,CC(=O)[C@@]1(C)CC[C@H]2[C@@H]3CCC4=CC(=O)CCC4=C3CC[C@]12C,Demegestone,,,34758,DTXSID20878581,CC(=O)C1(C)CCC2C3CCC4=CC(=O)CCC4=C3CCC12C,"InChI=1S/C21H28O2/c1-13(22)20(2)11-9-19-18-6-4-14-12-15(23)5-7-16(14)17(18)8-10-21(19,20)3/h12,18-19H,4-11H2,1-3H3",JWAHBTQSSMYISL-UHFFFAOYSA-N,?,,106.0,108135
108142,10203-28-8,NOCAS_864232,CCCCCCCCCCC(C)O,2-DODECANOL,,,34762,DTXSID70864232,CCCCCCCCCCC(C)O,"InChI=1S/C12H26O/c1-3-4-5-6-7-8-9-10-11-12(2)13/h12-13H,3-11H2,1-2H3",XSWSEQPWKOWORN-UHFFFAOYSA-N,?,,19.0,108142
108146,10222-95-4,10222-95-4,CC(C)c1cc(C)c(C)cc1C,"BENZENE, 1,2,4-TRIMETHYL-5-(1-METHYLETHYL)-","5-Isopropyl-1,2,4-trimethylbenzene","1,2,4-trimethyl-5-propan-2-ylbenzene",34766,DTXSID50144802,CC(C)c1cc(C)c(C)cc1C,"InChI=1S/C12H18/c1-8(2)12-7-10(4)9(3)6-11(12)5/h6-8H,1-5H3",POOXAYBPGIHSME-UHFFFAOYSA-N,?,,21.0,108146
108150,10262-69-8,10262-69-8,CNCCCC12CCC(c3ccccc13)c1ccccc21,Maprotiline,Maprotiline,"3-(9,10-ethanoanthracen-9(10H)-yl)-N-methylpropan-1-amine",34770,DTXSID7045029,CNCCCC12CCC(c3ccccc13)c1ccccc21,"InChI=1S/C20H23N/c1-21-14-6-12-20-13-11-15(16-7-2-4-9-18(16)20)17-8-3-5-10-19(17)20/h2-5,7-10,15,21H,6,11-14H2,1H3",QSLMDECMDJKHMQ-UHFFFAOYSA-N,?,,93.0,108150
108154,10289-68-6,54831-34-4,CCCCCCCCCC[C@H](O)CC,Tridecan-3-ol,"3-Tridecanol, (R)-",C13H28O,34774,DTXSID90433762,CCCCCCCCCCC(O)CC,"InChI=1S/C13H28O/c1-3-5-6-7-8-9-10-11-12-13(14)4-2/h13-14H,3-12H2,1-2H3",LBSIDDOMEWFXBT-UHFFFAOYSA-N,?,,32.0,108154
108160,10321-12-7,NOCAS_864247,CN(C)C(C)CN1C(=O)c2ccc[n]c2Nc2ccccc12,Propizepine,,,34779,DTXSID20864247,CN(C)C(C)CN1C(=O)c2ccc[n]c2Nc2ccccc12,"InChI=1S/C17H20N4O/c1-12(20(2)3)11-21-15-9-5-4-8-14(15)19-16-13(17(21)22)7-6-10-18-16/h4-10,12H,11H2,1-3H3,(H,18,19)",YFLBETLXDPBWTD-UHFFFAOYSA-N,?,,122.0,108160
108165,10373-78-1,10373-78-1,CC1(C)C2CCC1(C)C(=O)C2=O,DL-CAMPHORQUINONE,(+)Camphorquinone,"1,7,7-trimethylbicyclo[2.2.1]heptane-2,3-dione",34784,DTXSID7049394,CC1(C)C2CCC1(C)C(=O)C2=O,"InChI=1S/C10H14O2/c1-9(2)6-4-5-10(9,3)8(12)7(6)11/h6H,4-5H2,1-3H3",VNQXSTWCDUXYEZ-UHFFFAOYSA-N,?,,199.0,108165
108169,10443-70-6,10443-70-6,Cc1cc(Cl)ccc1OCCCC(=O)OCC,MCPB-ETHYL,MCPB ethyl,ethyl 4-(4-chloro-2-methylphenoxy)butanoate,34788,DTXSID4058287,Cc1cc(Cl)ccc1OCCCC(=O)OCC,"InChI=1S/C13H17ClO3/c1-3-16-13(15)5-4-8-17-12-7-6-11(14)9-10(12)2/h6-7,9H,3-5,8H2,1-2H3",XNKARWLGLZGMGX-UHFFFAOYSA-N,?,,-1.0,108169
108174,10495-45-1,10495-45-1,CC(C)CS(=O)(=O)CC(C)C,"PROPANE, 1,1'-SULFONYLBIS[2-METHYL-",Diisobutyl sulfone,2-methyl-1-(2-methylpropylsulfonyl)propane,34793,DTXSID70146868,CC(C)CS(=O)(=O)CC(C)C,"InChI=1S/C8H18O2S/c1-7(2)5-11(9,10)6-8(3)4/h7-8H,5-6H2,1-4H3",ULSLZZKKTPQNNJ-UHFFFAOYSA-N,?,,17.0,108174
108178,10552-74-6,10552-74-6,CC(C)OC(=O)c1cc(cc(c1)C(=O)OC(C)C)[N+]([O-])=O,Nitrothal-isopropyl,Nitrothal-isopropyl,"dipropan-2-yl 5-nitrobenzene-1,3-dicarboxylate",34797,DTXSID5037579,CC(C)OC(=O)c1cc(cc(c1)C(=O)OC(C)C)[N+]([O-])=O,"InChI=1S/C14H17NO6/c1-8(2)20-13(16)10-5-11(14(17)21-9(3)4)7-12(6-10)15(18)19/h5-9H,1-4H3",VJAWBEFMCIINFU-UHFFFAOYSA-N,?,,65.0,108178
108182,10596-23-3,10596-23-3,OP(O)(=O)C(Cl)(Cl)P(O)(O)=O,Clodronic Acid,Clodronic acid,(dichloromethanediyl)bis(phosphonic acid),34801,DTXSID8046959,OP(O)(=O)C(Cl)(Cl)P(O)(O)=O,"InChI=1S/CH4Cl2O6P2/c2-1(3,10(4,5)6)11(7,8)9/h(H2,4,5,6)(H2,7,8,9)",ACSIXWWBWUQEHA-UHFFFAOYSA-N,?,,250.0,108182
108187,11672-87-0|16672-87-0,16672-87-0,OP(O)(=O)CCCl,ETHEPHON,Ethephon,(2-chloroethyl)phosphonic acid,34805|35002,DTXSID7024085,OP(O)(=O)CCCl,"InChI=1S/C2H6ClO3P/c3-1-2-7(4,5)6/h1-2H2,(H2,4,5,6)",UDPGUMQDCGORJQ-UHFFFAOYSA-N,?,,74.25,108187
108194,13029-08-8,13029-08-8,Clc1ccccc1-c1ccccc1Cl,"2,2'-DICHLOROBIPHENYL","2,2'-Dichlorobiphenyl","2,2'-dichlorobiphenyl",34809,DTXSID4044533,Clc1ccccc1-c1ccccc1Cl,InChI=1S/C12H8Cl2/c13-11-7-3-1-5-9(11)10-6-2-4-8-12(10)14/h1-8H,JAYCNKDKIKZTAF-UHFFFAOYSA-N,?,,61.5,108194
108199,13073-29-5,13073-29-5,Cc1cccc(c1O)[N+]([O-])=O,2-METHYL-6-NITROPHENOL,6-Nitro-o-cresol,,34814,DTXSID8074491,Cc1cccc(c1O)[N+]([O-])=O,"InChI=1S/C7H7NO3/c1-5-3-2-4-6(7(5)9)8(10)11/h2-4,9H,1H3",AQDKZPFDOWHRDZ-UHFFFAOYSA-N,?,,70.0,108199
108207,13153-11-2,13153-11-2,O=S1CCC1,"THIETANE, 1-OXIDE","Thietane, 1-oxide (9CI)",Thietane 1-oxide,34818,DTXSID10157099,O=S1CCC1,InChI=1S/C3H6OS/c4-5-2-1-3-5/h1-3H2,GINSRDSEEGBTJO-UHFFFAOYSA-N,?,,31.5,108207
108212,13256-22-9,13256-22-9,CN(CC(O)=O)N=O,N-NITROSOSARCOSINE,N-Nitrososarcosine,2-(methyl-nitrosoamino)acetic acid,34822,DTXSID9074309,CN(CC(O)=O)N=O,"InChI=1S/C3H6N2O3/c1-5(4-8)2-3(6)7/h2H2,1H3,(H,6,7)",HJMPSKKJHVWPBK-UHFFFAOYSA-N,?,,66.5,108212
108217,13351-61-6,13351-61-6,CC(C)(CO)Cc1ccccc1,"2,2-Dimethyl-3-phenyl-propan-1-ol",Dimethyl phenylpropanol,"2,2-dimethyl-3-phenylpropan-1-ol",34827,DTXSID30158149,CC(C)(CO)Cc1ccccc1,"InChI=1S/C11H16O/c1-11(2,9-12)8-10-6-4-3-5-7-10/h3-7,12H,8-9H2,1-2H3",VNGAHMPMLRTSLF-UHFFFAOYSA-N,?,,34.5,108217
108221,13360-63-9,13360-63-9,CCCCNCC,"1-Butanamine, N-ethyl-",N-Ethyl-N-butylamine,N-ethylbutan-1-amine,34831,DTXSID6025276,CCCCNCC,"InChI=1S/C6H15N/c1-3-5-6-7-4-2/h7H,3-6H2,1-2H3",QHCCDDQKNUYGNC-UHFFFAOYSA-N,?,,-78.0,108221
108227,13425-39-3,13425-39-3,CN1C(=O)c2c([n]c[n]2CCOC(=O)c2c[n]ccc2)N(C)C1=O,ETOFYLLINE NICOTINATE,Etofylline nicotinate,"2-(1,3-dimethyl-2,6-dioxopurin-7-yl)ethyl pyridine-3-carboxylate",34836,DTXSID30158609,CN1C(=O)c2c([n]c[n]2CCOC(=O)c2c[n]ccc2)N(C)C1=O,"InChI=1S/C15H15N5O4/c1-18-12-11(13(21)19(2)15(18)23)20(9-17-12)6-7-24-14(22)10-4-3-5-16-8-10/h3-5,8-9H,6-7H2,1-2H3",ZWIAODBBEZGVPY-UHFFFAOYSA-N,?,,151.5,108227
108231,13466-41-6,13466-41-6,CC1=CC(=O)NC=C1,"2(1H)-PYRIDINONE, 4-METHYL-",2-Hydroxy-4-methylpyridine,C6H7NO,34840,DTXSID00299790,CC1=CC(=O)NC=C1,"InChI=1S/C6H7NO/c1-5-2-3-7-6(8)4-5/h2-4H,1H3,(H,7,8)",YBDRFJXGJQULGH-UHFFFAOYSA-N,?,,130.0,108231
108235,13475-82-6,13475-82-6,CC(CC(C)(C)C)CC(C)(C)C,"Heptane, 2,2,4,6,6-pentamethyl-","2,2,4,6,6-Pentamethylheptane","2,2,4,6,6-pentamethylheptane",34844,DTXSID0042034,CC(CC(C)(C)C)CC(C)(C)C,"InChI=1S/C12H26/c1-10(8-11(2,3)4)9-12(5,6)7/h10H,8-9H2,1-7H3",VKPSKYDESGTTFR-UHFFFAOYSA-N,?,,-67.0,108235
108239,13511-38-1,13511-38-1,CC(C)(CCl)C(O)=O,"Propanoic acid, 3-chloro-2,2-dimethyl-",3-Chloropivalic acid,"3-chloro-2,2-dimethylpropanoic acid",34848,DTXSID0065517,CC(C)(CCl)C(O)=O,"InChI=1S/C5H9ClO2/c1-5(2,3-6)4(7)8/h3H2,1-2H3,(H,7,8)",YBJGQSNSAWZZHL-UHFFFAOYSA-N,?,,41.5,108239
108243,13547-70-1,13547-70-1,CC(C)(C)C(=O)CCl,1-Monochloropinacoline,"1-Chloro-3,3-dimethyl-butan-2-one","1-chloro-3,3-dimethylbutan-2-one",34851,DTXSID8027749,CC(C)(C)C(=O)CCl,"InChI=1S/C6H11ClO/c1-6(2,3)5(8)4-7/h4H2,1-3H3",ULSAJQMHTGKPIY-UHFFFAOYSA-N,?,,-13.0,108243
108247,13602-12-5,13602-12-5,[O-][n+]1ccc(cc1)C(O)=O,ISONICOTINIC ACID N-OXIDE,4-Pyridinecarboxylic acid 1-oxide,1-oxidopyridin-1-ium-4-carboxylic acid,34855,DTXSID6065557,[O-][n+]1ccc(cc1)C(O)=O,"InChI=1S/C6H5NO3/c8-6(9)5-1-3-7(10)4-2-5/h1-4H,(H,8,9)",QCWTWMJMLSKQCJ-UHFFFAOYSA-N,?,,270.5,108247
108252,13674-84-5,13674-84-5,CC(CCl)OP(=O)(OC(C)CCl)OC(C)CCl,"2-PROPANOL, 1-CHLORO-, PHOSPHATE (3:1)",Tris(2-chloroisopropyl)phosphate,C9H18Cl3O4P,34859,DTXSID5026259,CC(CCl)OP(=O)(OC(C)CCl)OC(C)CCl,"InChI=1S/C9H18Cl3O4P/c1-7(4-10)14-17(13,15-8(2)5-11)16-9(3)6-12/h7-9H,4-6H2,1-3H3",KVMPUXDNESXNOH-UHFFFAOYSA-N,?,,-40.0,108252
108256,13684-63-4,13684-63-4,Cc1cc(ccc1)NC(=O)Oc1cc(ccc1)NC(=O)OC,PHENMEDIPHAM,Phenmedipham,3-[(methoxycarbonyl)amino]phenyl (3-methylphenyl)carbamate,34863,DTXSID1024255,Cc1cc(ccc1)NC(=O)Oc1cc(ccc1)NC(=O)OC,"InChI=1S/C16H16N2O4/c1-11-5-3-6-12(9-11)18-16(20)22-14-8-4-7-13(10-14)17-15(19)21-2/h3-10H,1-2H3,(H,17,19)(H,18,20)",IDOWTHOLJBTAFI-UHFFFAOYSA-N,?,,143.0,108256
108260,13741-18-9,NOCAS_864433,CC1(C)C2CC(c3cc(C)c(C)cc3O)C1(C)CC2,Xibornol,"Phenol, 4,5-dimethyl-2-(1,7,7-trimethylbicyclo[2.2.1]hept-2-yl)-",C18H26O,34867,DTXSID10864433,CC1(C)C2CC(c3cc(C)c(C)cc3O)C1(C)CC2,"InChI=1S/C18H26O/c1-11-8-14(16(19)9-12(11)2)15-10-13-6-7-18(15,5)17(13,3)4/h8-9,13,15,19H,6-7,10H2,1-5H3",RNRHMQWZFJXKLZ-UHFFFAOYSA-N,?,,95.0,108260
108264,13808-64-5,13808-64-5,Cc1[nH][n]cc1Br,4-Bromo-3-methyl-1H-pyrazole,4-Bromo-3-methyl-1H-pyrazole,4-bromo-3-methyl-2H-pyrazole,34871,DTXSID30160464,Cc1[nH][n]cc1Br,"InChI=1S/C4H5BrN2/c1-3-4(5)2-6-7-3/h2H,1H3,(H,6,7)",IXQPRETWBGVNPJ-UHFFFAOYSA-N,?,,76.5,108264
108268,13915-79-2,13915-79-2,Cc1[n]c(NC(=O)CC)[s]c1Cl,"Propanamide, N-(5-chloro-4-methyl-2-thiazolyl)-",N-(5-Chloro-4-methyl-2-thiazolyl)propanamide,"N-(5-chloro-4-methyl-1,3-thiazol-2-yl)propanamide",34875,DTXSID9074511,Cc1[n]c(NC(=O)CC)[s]c1Cl,"InChI=1S/C7H9ClN2OS/c1-3-5(11)10-7-9-4(2)6(8)12-7/h3H2,1-2H3,(H,9,10,11)",QHLFJSMAWAWVRU-UHFFFAOYSA-N,?,,159.0,108268
108272,13993-65-2,13993-65-2,CN1c2ccccc2Sc2ccc(CC(O)=O)cc12,Metiazinic acid,Metiazinic acid,(10-methyl-10H-phenothiazin-2-yl)acetic acid,34879,DTXSID7023308,CN1c2ccccc2Sc2ccc(CC(O)=O)cc12,"InChI=1S/C15H13NO2S/c1-16-11-4-2-3-5-13(11)19-14-7-6-10(8-12(14)16)9-15(17)18/h2-8H,9H2,1H3,(H,17,18)",LMINNBXUMGNKMM-UHFFFAOYSA-N,?,,144.0,108272
108276,14008-48-1,14008-48-1,CC(=O)Oc1ccc(cc1)C1(Oc2ccccc2NC1=O)c1ccc(cc1)OC(C)=O,Bisoxatin Acetate,Bisoxatin acetate,"(3-oxo-3,4-dihydro-2H-1,4-benzoxazine-2,2-diyl)dibenzene-4,1-diyl diacetate",34883,DTXSID1048839,CC(=O)Oc1ccc(cc1)C1(Oc2ccccc2NC1=O)c1ccc(cc1)OC(C)=O,"InChI=1S/C24H19NO6/c1-15(26)29-19-11-7-17(8-12-19)24(18-9-13-20(14-10-18)30-16(2)27)23(28)25-21-5-3-4-6-22(21)31-24/h3-14H,1-2H3,(H,25,28)",ZCBJDQBSLZREAA-UHFFFAOYSA-N,?,,190.0,108276
108280,14072-86-7,14072-86-7,CC1(C)CC=CCC1,"CYCLOHEXENE, 4,4-DIMETHYL-","Cyclohexene, 4,4-dimethyl-","4,4-DIMETHYLCYCLOHEXENE",34887,DTXSID00161468,CC1(C)CC=CCC1,"InChI=1S/C8H14/c1-8(2)6-4-3-5-7-8/h3-4H,5-7H2,1-2H3",DRORSPJLYCDESA-UHFFFAOYSA-N,?,,-74.4,108280
108284,14167-59-0,14167-59-0,CCCCCCCCCCCCCCCCCCCCCCCCCCCCCCCCCC,N-TETRATRIACONTANE,Tetratriacontane,Tetratriacontane,34891,DTXSID7058622,CCCCCCCCCCCCCCCCCCCCCCCCCCCCCCCCCC,"InChI=1S/C34H70/c1-3-5-7-9-11-13-15-17-19-21-23-25-27-29-31-33-34-32-30-28-26-24-22-20-18-16-14-12-10-8-6-4-2/h3-34H2,1-2H3",GWVDBZWVFGFBCN-UHFFFAOYSA-N,?,,72.6,108284
108288,14222-60-7,14222-60-7,CCCc1cc(cc[n]1)C(N)=S,Protionamide,Prothionamide,2-propylpyridine-4-carbothioamide,34895,DTXSID7045940,CCCc1cc(cc[n]1)C(N)=S,"InChI=1S/C9H12N2S/c1-2-3-8-6-7(9(10)12)4-5-11-8/h4-6H,2-3H2,1H3,(H2,10,12)",VRDIULHPQTYCLN-UHFFFAOYSA-N,?,,136.7,108288
108292,14287-61-7,27855-05-6,CC(C)[C@@H](C)C(O)=O,"2,3-DIMETHYLBUTYRIC ACID",PUBCHEM_16126808,C6H12O2,34899,DTXSID10583132,CC(C)C(C)C(O)=O,"InChI=1S/C6H12O2/c1-4(2)5(3)6(7)8/h4-5H,1-3H3,(H,7,8)",XFOASZQZPWEJAA-UHFFFAOYSA-N,?,,-1.5,108292
108299,14376-16-0,14376-16-0,OC(=O)c1ccccc1C(=O)Nc1ccc(cc1)S(=O)(=O)NC(=O)NCO,Sulfaloxic Acid,Sulfaloxic acid,2-[[4-(hydroxymethylcarbamoylsulfamoyl)phenyl]carbamoyl]benzoic acid,34904,DTXSID60162537,OC(=O)c1ccccc1C(=O)Nc1ccc(cc1)S(=O)(=O)NC(=O)NCO,"InChI=1S/C16H15N3O7S/c20-9-17-16(24)19-27(25,26)11-7-5-10(6-8-11)18-14(21)12-3-1-2-4-13(12)15(22)23/h1-8,20H,9H2,(H,18,21)(H,22,23)(H2,17,19,24)",UPCBSVILVWKHIG-UHFFFAOYSA-N,?,,162.5,108299
108305,14476-37-0,14476-37-0,CCCCCCCC(=O)CCC,Undecan-4-one,Undecan-4-one,Undecan-4-one,34908,DTXSID00162798,CCCCCCCC(=O)CCC,"InChI=1S/C11H22O/c1-3-5-6-7-8-10-11(12)9-4-2/h3-10H2,1-2H3",NBSLHMOSERBUOV-UHFFFAOYSA-N,?,,4.5,108305
108309,14548-46-0,14548-46-0,O=C(c1ccccc1)c1cc[n]cc1,4-BENZOYLPYRIDINE,4-Benzoylpyridine,phenyl(pyridin-4-yl)methanone,34912,DTXSID6022262,O=C(c1ccccc1)c1cc[n]cc1,InChI=1S/C12H9NO/c14-12(10-4-2-1-3-5-10)11-6-8-13-9-7-11/h1-9H,SKFLCXNDKRUHTA-UHFFFAOYSA-N,?,,72.0,108309
108321,14838-15-4,14838-15-4,C[C@@H](N)[C@@H](O)c1ccccc1,PHENYLPROPANOLAMINE,Phenylpropanolamine,"(1S,2R)-2-amino-1-phenylpropan-1-ol",34919,DTXSID4023466,CC(N)C(O)c1ccccc1,"InChI=1S/C9H13NO/c1-7(10)9(11)8-5-3-2-4-6-8/h2-7,9,11H,10H2,1H3",DLNKOYKMWOXYQA-UHFFFAOYSA-N,?,,101.25,108321
108326,14892-14-9,14892-14-9,OC(=O)COc1c(F)c(F)c(F)c(F)c1F,Pentafluorophenoxyacetic acid,(Pentafluorophenoxy)acetic acid,"2-(2,3,4,5,6-pentafluorophenoxy)acetic acid",34923,DTXSID20164138,OC(=O)COc1c(F)c(F)c(F)c(F)c1F,"InChI=1S/C8H3F5O3/c9-3-4(10)6(12)8(7(13)5(3)11)16-1-2(14)15/h1H2,(H,14,15)",SMXPFEBIAASLOR-UHFFFAOYSA-N,?,,109.0,108326
108331,14979-39-6,14979-39-6,CC(CCC)C(O)CC,"3-HEPTANOL, 4-METHYL- (VAN8CI9CI)",4-Methyl-3-heptanol,4-methylheptan-3-ol,34928,DTXSID0041519,CC(CCC)C(O)CC,"InChI=1S/C8H18O/c1-4-6-7(3)8(9)5-2/h7-9H,4-6H2,1-3H3",BKQICAFAUMRYLZ-UHFFFAOYSA-N,?,,-123.0,108331
108335,15121-84-3,15121-84-3,[O-][N+](=O)c1ccccc1CCO,"Benzeneethanol, 2-nitro-",2-(2-Nitrophenyl)ethanol,2-(2-nitrophenyl)ethanol,34932,DTXSID2025763,[O-][N+](=O)c1ccccc1CCO,"InChI=1S/C8H9NO3/c10-6-5-7-3-1-2-4-8(7)9(11)12/h1-4,10H,5-6H2",SLRIOXRBAPBGEI-UHFFFAOYSA-N,?,,2.0,108335
108341,15232-76-5,NOCAS_871238,CCC#CCCCC,3-OCTYNE,,,34937,DTXSID60871238,CCC#CCCCC,"InChI=1S/C8H14/c1-3-5-7-8-6-4-2/h3-5,7H2,1-2H3",UDEISTCPVNLKRJ-UHFFFAOYSA-N,?,,-103.9,108341
108345,15301-48-1,15301-48-1,CCC(=O)N1c2ccccc2N(C2CCN(CCC(C#N)(c3ccccc3)c3ccccc3)CC2)C1=O,BEZITRAMIDE,Bezitramide [INN:BAN:DCF],"4-[4-(2-oxo-3-propanoylbenzimidazol-1-yl)piperidin-1-yl]-2,2-di(phenyl)butanenitrile",34941,DTXSID90165197,CCC(=O)N1c2ccccc2N(C2CCN(CCC(C#N)(c3ccccc3)c3ccccc3)CC2)C1=O,"InChI=1S/C31H32N4O2/c1-2-29(36)35-28-16-10-9-15-27(28)34(30(35)37)26-17-20-33(21-18-26)22-19-31(23-32,24-11-5-3-6-12-24)25-13-7-4-8-14-25/h3-16,26H,2,17-22H2,1H3",FLKWNFFCSSJANB-UHFFFAOYSA-N,?,,147.0,108345
108349,15318-45-3,15318-45-3,CS(=O)(=O)c1ccc(cc1)[C@@H](O)[C@@H](CO)NC(=O)C(Cl)Cl,Thiamphenicol,Thiamphenicol,"2,2-dichloro-N-{(1R,2R)-1,3-dihydroxy-1-[4-(methylsulfonyl)phenyl]propan-2-yl}acetamide",34945,DTXSID5021338,CS(=O)(=O)c1ccc(cc1)C(O)C(CO)NC(=O)C(Cl)Cl,"InChI=1S/C12H15Cl2NO5S/c1-21(19,20)8-4-2-7(3-5-8)10(17)9(6-16)15-12(18)11(13)14/h2-5,9-11,16-17H,6H2,1H3,(H,15,18)",OTVAEFIXJLOWRX-UHFFFAOYSA-N,?,,165.3,108349
108356,15469-77-9,NOCAS_864593,CCCCCCC=CCC(O)=O,Dec-3-enoic acid,,,34949,DTXSID50864593,CCCCCCC=CCC(O)=O,"InChI=1S/C10H18O2/c1-2-3-4-5-6-7-8-9-10(11)12/h7-8H,2-6,9H2,1H3,(H,11,12)/b8-7+",CPVUNKGURQKKKX-BQYQJAHWSA-N,?,,18.0,108356
108361,15599-39-0,NOCAS_871968,CNC(=S)NCO,Noxythiolin,Noxytiolin [INN:BAN:DCF],,34953,DTXSID90871968,CNC(=S)NCO,"InChI=1S/C3H8N2OS/c1-4-3(7)5-2-6/h6H,2H2,1H3,(H2,4,5,7)",JLMHZVYLAQPMOZ-UHFFFAOYSA-N,?,,89.0,108361
108365,15687-18-0,15687-18-0,CC(C)(O)CC(C)(O)c1ccc(Cl)cc1,Fenpentadiol,Fenpentadiol,"2-(4-chlorophenyl)-4-methylpentane-2,4-diol",34957,DTXSID9023047,CC(C)(O)CC(C)(O)c1ccc(Cl)cc1,"InChI=1S/C12H17ClO2/c1-11(2,14)8-12(3,15)9-4-6-10(13)7-5-9/h4-7,14-15H,8H2,1-3H3",SNJDSTGQYRTZJT-UHFFFAOYSA-N,?,,76.5,108365
108371,15862-07-4,15862-07-4,Clc1cc(-c2ccccc2)c(Cl)cc1Cl,"2,4,5-TRICHLOROBIPHENYL","2,4,5-Trichlorobiphenyl","1,2,4-trichloro-5-phenylbenzene",34961,DTXSID0073405,Clc1cc(-c2ccccc2)c(Cl)cc1Cl,InChI=1S/C12H7Cl3/c13-10-7-12(15)11(14)6-9(10)8-4-2-1-3-5-8/h1-7H,VGVIKVCCUATMNG-UHFFFAOYSA-N,?,,76.3,108371
108375,15879-93-3,15879-93-3,OC[C@@H](O)[C@H]1O[C@@H]2O[C@@H](O[C@@H]2[C@H]1O)C(Cl)(Cl)Cl,CHLORALOSE,Chloralose,"1,2-O-[(1R)-2,2,2-trichloroethylidene]-alpha-D-glucofuranose",34965,DTXSID4020088,OCC(O)C1OC2OC(OC2C1O)C(Cl)(Cl)Cl,"InChI=1S/C8H11Cl3O6/c9-8(10,11)7-16-5-3(14)4(2(13)1-12)15-6(5)17-7/h2-7,12-14H,1H2",OJYGBLRPYBAHRT-UHFFFAOYSA-N,?,,183.0,108375
108380,15971-29-6,15971-29-6,COc1ccc(C=O)c2ccccc21,4-Methoxy-naphthalene-1-carbaldehyde,4-Methoxy-1-naphthalaldehyde,4-methoxynaphthalene-1-carbaldehyde,34969,DTXSID60166717,COc1ccc(C=O)c2ccccc21,"InChI=1S/C12H10O2/c1-14-12-7-6-9(8-13)10-4-2-3-5-11(10)12/h2-8H,1H3",MVXMNHYVCLMLDD-UHFFFAOYSA-N,?,,34.8,108380
108385,16096-32-5,16096-32-5,Cc1cccc2[nH]ccc21,4-Methylindole,4-Methylindole,4-methyl-1H-indole,34973,DTXSID20167043,Cc1cccc2[nH]ccc21,"InChI=1S/C9H9N/c1-7-3-2-4-9-8(7)5-6-10-9/h2-6,10H,1H3",PZOUSPYUWWUPPK-UHFFFAOYSA-N,?,,5.0,108385
108389,16136-84-8|16136-85-9,590-21-6,C/C=C/Cl,"1-PROPENE, 1-CHLORO-, (Z)-, 1-PROPENE, 1-CHLORO-, (E)-",1-Chloropropene,(1E)-1-chloroprop-1-ene,34977|34978,DTXSID5020318,CC=CCl,"InChI=1S/C3H5Cl/c1-2-3-4/h2-3H,1H3/b3-2-",OWXJKYNZGFSVRC-IHWYPQMZSA-N,?,,-116.9,108389
108394,16308-92-2,16308-92-2,Cc1cc(C)c(CO)cc1,"2,4-DIMETHYLBENZYL ALCOHOL","2,4-Dimethylbenzyl alcohol","(2,4-dimethylphenyl)methanol",34982,DTXSID90167510,Cc1cc(C)c(CO)cc1,"InChI=1S/C9H12O/c1-7-3-4-9(6-10)8(2)5-7/h3-5,10H,6H2,1-2H3",QUIMJTKRVOBTQN-UHFFFAOYSA-N,?,,22.0,108394
108400,16420-13-6,16420-13-6,CN(C)C(=S)Cl,"Carbamothioic chloride, dimethyl-","Carbamothioic chloride, dimethyl-","N,N-dimethylcarbamothioyl chloride",34987,DTXSID4066048,CN(C)C(=S)Cl,InChI=1S/C3H6ClNS/c1-5(2)3(4)6/h1-2H3,PHWISQNXPLXQRU-UHFFFAOYSA-N,?,,42.5,108400
108406,16532-79-9,16532-79-9,N#CCc1ccc(Br)cc1,"Benzeneacetonitrile, 4-bromo-",4-Bromophenylacetonitrile,(4-bromophenyl)acetonitrile,34993,DTXSID6051774,N#CCc1ccc(Br)cc1,"InChI=1S/C8H6BrN/c9-8-3-1-7(2-4-8)5-6-10/h1-4H,5H2",MFHFWRBXPQDZSA-UHFFFAOYSA-N,?,,48.0,108406
108410,16583-98-5,NOCAS_871971,CC(C)(C(O)=O)[n]1[n]c2ccccc2[n]1,"2H-BENZOTRIAZOLE-2-ACETIC ACID, ?,?-DIMETHYL-",,,34997,DTXSID20871971,CC(C)(C(O)=O)[n]1[n]c2ccccc2[n]1,"InChI=1S/C10H11N3O2/c1-10(2,9(14)15)13-11-7-5-3-4-6-8(7)12-13/h3-6H,1-2H3,(H,14,15)",ZXUHPEIOYKPFJJ-UHFFFAOYSA-N,?,,152.5,108410
108414,16650-52-5,16650-52-5,OC(=O)c1cccc2c(Cl)cccc21,5-Chloro-naphthalene-1-carboxylic acid,5-Chloro-1-naphthoic acid,C11H7ClO2,35001,DTXSID20359082,OC(=O)c1cccc2c(Cl)cccc21,"InChI=1S/C11H7ClO2/c12-10-6-2-3-7-8(10)4-1-5-9(7)11(13)14/h1-6H,(H,13,14)",CPGDMBASSDNQIS-UHFFFAOYSA-N,?,,245.0,108414
108420,16747-28-7,16747-28-7,CCCC(C)(C)C(C)C,"2,3,3-TRIMETHYLHEXANE","2,3,3-Trimethylhexane","2,3,3-TRIMETHYLHEXANE",35005,DTXSID30168288,CCCC(C)(C)C(C)C,"InChI=1S/C9H20/c1-6-7-9(4,5)8(2)3/h8H,6-7H2,1-5H3",DJYSEQMMCZAKGT-UHFFFAOYSA-N,?,,-116.8,108420
108424,16747-38-9,16747-38-9,CC(C)(C(C)C)C(C)C,"2,3,3,4-TETRAMETHYLPENTANE","Pentane, 2,3,3,4-tetramethyl-","2,3,3,4-Tetramethylpentane",35009,DTXSID20168292,CC(C)(C(C)C)C(C)C,"InChI=1S/C9H20/c1-7(2)9(5,6)8(3)4/h7-8H,1-6H3",JLCYYQOQSAMWTA-UHFFFAOYSA-N,?,,-102.1,108424
108428,16749-11-4,16749-11-4,Cl[C@H]1CC[C@@H](Cl)CC1,"CYCLOHEXANE, 1,4-DICHLORO-, CIS-",,,35013,DTXSID70878819,ClC1CCC(Cl)CC1,"InChI=1S/C6H10Cl2/c7-5-1-2-6(8)4-3-5/h5-6H,1-4H2",WQTINZDWAXJLGH-UHFFFAOYSA-N,?,,18.0,108428
108432,16773-42-5,16773-42-5,Cc1[n]cc([n]1CC(O)CCl)[N+]([O-])=O,1(3CL2OHPR)-2-ME-5-NO2 IMIDAZOLE,Ornidazole,1-chloro-3-(2-methyl-5-nitro-1H-imidazol-1-yl)propan-2-ol,35017,DTXSID4045420,Cc1[n]cc([n]1CC(O)CCl)[N+]([O-])=O,"InChI=1S/C7H10ClN3O3/c1-5-9-3-7(11(13)14)10(5)4-6(12)2-8/h3,6,12H,2,4H2,1H3",IPWKIXLWTCNBKN-UHFFFAOYSA-N,?,,77.5,108432
108436,16874-33-2,87392-07-2,OC(=O)[C@@H]1CCCO1,"2-FURANCARBOXYLIC ACID, TETRAHYDRO-","Tetrahydro-2-furoic acid, (-)-",(2S)-oxolane-2-carboxylic acid,35021,DTXSID70236319,OC(=O)C1CCCO1,"InChI=1S/C5H8O3/c6-5(7)4-2-1-3-8-4/h4H,1-3H2,(H,6,7)",UJJLJRQIPMGXEZ-UHFFFAOYSA-N,?,,21.0,108436
108441,16995-35-0,16995-35-0,O=C(CCl)C(Cl)(Cl)Cl,"1,1,1,3-TETRACHLOROACETONE","1,1,1,3-Tetrachloropropanone","1,1,1,3-tetrachloropropan-2-one",35025,DTXSID6021662,O=C(CCl)C(Cl)(Cl)Cl,"InChI=1S/C3H2Cl4O/c4-1-2(8)3(5,6)7/h1H2",MSZQBKOLHPDFFD-UHFFFAOYSA-N,?,,65.0,108441
108450,17216-08-9,NOCAS_871271,CC(=O)C1CCc2ccccc2C1=O,"2-Acetyl-3,4-dihydro-2H-naphthalen-1-one",,,35033,DTXSID40871271,CC(=O)C1CCc2ccccc2C1=O,"InChI=1S/C12H12O2/c1-8(13)10-7-6-9-4-2-3-5-11(9)12(10)14/h2-5,10H,6-7H2,1H3",BSELJBOMYPMBNL-UHFFFAOYSA-N,?,,56.0,108450
108454,17301-94-9,17301-94-9,CC(CCC)CCCCC,"NONANE, 4-METHYL-",,,35037,DTXSID60864766,CC(CCC)CCCCC,"InChI=1S/C10H22/c1-4-6-7-9-10(3)8-5-2/h10H,4-9H2,1-3H3",IALRSQMWHFKJJA-UHFFFAOYSA-N,?,,-99.0,108454
108464,17560-51-9,17560-51-9,Cc1ccccc1N1C(C)Nc2cc(Cl)c(cc2C1=O)S(N)(=O)=O,Metolazone,Metolazone,"7-chloro-2-methyl-3-(2-methylphenyl)-4-oxo-1,2,3,4-tetrahydroquinazoline-6-sulfonamide",35044,DTXSID6045167,Cc1ccccc1N1C(C)Nc2cc(Cl)c(cc2C1=O)S(N)(=O)=O,"InChI=1S/C16H16ClN3O3S/c1-9-5-3-4-6-14(9)20-10(2)19-13-8-12(17)15(24(18,22)23)7-11(13)16(20)21/h3-8,10,19H,1-2H3,(H2,18,22,23)",AQCHWTWZEMGIFD-UHFFFAOYSA-N,?,,256.0,108464