ChemID,source_casrn,CAS,SMILES,NAME,preferred_name,iupac,MPID,dsstox_substance_id,Canonical_QSARr,InChI_Code_QSARr,InChI Key_QSARr,Salt_Solvent,Salt_Solvent_ID,MP,ID
106258,1596-84-5,1596-84-5,CN(C)NC(=O)CCC(O)=O,DAMINOZIDE,Daminozide,"4-(2,2-dimethylhydrazinyl)-4-oxobutanoic acid",33099,DTXSID9020370,CN(C)NC(=O)CCC(O)=O,"InChI=1S/C6H12N2O3/c1-8(2)7-5(9)3-4-6(10)11/h3-4H2,1-2H3,(H,7,9)(H,10,11)",NOQGZXFMHARMLW-UHFFFAOYSA-N,?,,154.5,106258
106263,1603-41-4,1603-41-4,Cc1ccc(N)[n]c1,2-AMINO-5-METHYLPYRIDINE,5-Methylpyridin-2-amine,5-methylpyridin-2-amine,33103,DTXSID4029220,Cc1ccc(N)[n]c1,"InChI=1S/C6H8N2/c1-5-2-3-6(7)8-4-5/h2-4H,1H3,(H2,7,8)",CMBSSVKZOPZBKW-UHFFFAOYSA-N,?,,76.5,106263
106267,1606-67-3,1606-67-3,Nc1ccc2ccc3cccc4ccc1c2c34,1-PYRENAMINE,1-Aminopyrene,pyren-1-amine,33107,DTXSID3040932,Nc1ccc2ccc3cccc4ccc1c2c34,"InChI=1S/C16H11N/c17-14-9-7-12-5-4-10-2-1-3-11-6-8-13(14)16(12)15(10)11/h1-9H,17H2",YZVWKHVRBDQPMQ-UHFFFAOYSA-N,?,,116.0,106267
106271,1613-51-0,1613-51-0,C1CCCCS1,TETRAHYDRO-2H-THIOPYRAN,Thiane,Thiane,33111,DTXSID60167108,C1CCCCS1,InChI=1S/C5H10S/c1-2-4-6-5-3-1/h1-5H2,YPWFISCTZQNZAU-UHFFFAOYSA-N,?,,19.0,106271
106275,1617-90-9,1617-90-9,CC[C@]12C[C@](O)(C(=O)OC)[n]3c4[C@H]1N(CCc4c1ccccc31)CCC2,Vincamine,Vincamine,"methyl (3alpha,14beta,16alpha)-14-hydroxy-14,15-dihydroeburnamenine-14-carboxylate",33115,DTXSID9040134,CCC12CC(O)(C(=O)OC)[n]3c4C1N(CCc4c1ccccc31)CCC2,"InChI=1S/C21H26N2O3/c1-3-20-10-6-11-22-12-9-15-14-7-4-5-8-16(14)23(17(15)18(20)22)21(25,13-20)19(24)26-2/h4-5,7-8,18,25H,3,6,9-13H2,1-2H3",RXPRRQLKFXBCSJ-UHFFFAOYSA-N,?,,231.5,106275
106280,1622-62-4,1622-62-4,CN1c2ccc(cc2C(=NCC1=O)c1ccccc1F)[N+]([O-])=O,FLUNITRAZEPAM,Flunitrazepam,"5-(2-fluorophenyl)-1-methyl-7-nitro-1,3-dihydro-2H-1,4-benzodiazepin-2-one",33119,DTXSID7023065,CN1c2ccc(cc2C(=NCC1=O)c1ccccc1F)[N+]([O-])=O,"InChI=1S/C16H12FN3O3/c1-19-14-7-6-10(20(22)23)8-12(14)16(18-9-15(19)21)11-4-2-3-5-13(11)17/h2-8H,9H2,1H3",PPTYJKAXVCCBDU-UHFFFAOYSA-N,?,,166.5,106280
106285,1632-76-4,1632-76-4,Cc1ccc[n][n]1,"PYRIDAZINE, 3-METHYL-",3-Methylpyridazine,3-Methylpyridazine,33124,DTXSID80167529,Cc1ccc[n][n]1,"InChI=1S/C5H6N2/c1-5-3-2-4-6-7-5/h2-4H,1H3",MXDRPNGTQDRKQM-UHFFFAOYSA-N,?,,184.0,106285
106289,1634-09-9,31711-50-9,CCCCc1cccc2ccccc21,"NAPHTHALENE, 1-BUTYL-",Butylnaphthalene,1-BUTYLNAPHTHALENE,33128,DTXSID6075019,CCCCc1cccc2ccccc21,"InChI=1S/C14H16/c1-2-3-7-12-9-6-10-13-8-4-5-11-14(12)13/h4-6,8-11H,2-3,7H2,1H3",URGSMJLDEFDWNX-UHFFFAOYSA-N,?,,-19.8,106289
106293,1638-22-8,1638-22-8,CCCCc1ccc(O)cc1,P-BUTYLPHENOL,4-Butylphenol,4-butylphenol,33132,DTXSID3047425,CCCCc1ccc(O)cc1,"InChI=1S/C10H14O/c1-2-3-4-9-5-7-10(11)8-6-9/h5-8,11H,2-4H2,1H3",CYYZDBDROVLTJU-UHFFFAOYSA-N,?,,22.0,106293
106297,1640-89-7,1640-89-7,CCC1CCCC1,ETHYLCYCLOPENTANE,"Cyclopentane, ethyl-",Ethylcyclopentane,33136,DTXSID5075109,CCC1CCCC1,"InChI=1S/C7H14/c1-2-7-5-3-4-6-7/h7H,2-6H2,1H3",IFTRQJLVEBNKJK-UHFFFAOYSA-N,?,,-138.4,106297
106301,1646-26-0,1646-26-0,CC(=O)c1cc2ccccc2o1,"Ethanone, 1-(2-benzofuranyl)-","Ethanone, 1-(2-benzofuranyl)-",1-(1-benzofuran-2-yl)ethanone,33140,DTXSID3061845,CC(=O)c1cc2ccccc2o1,"InChI=1S/C10H8O2/c1-7(11)10-6-8-4-2-3-5-9(8)12-10/h2-6H,1H3",YUTFQTAITWWGFH-UHFFFAOYSA-N,?,,76.0,106301
106305,1649-08-7,1649-08-7,FC(F)(Cl)CCl,"1,2-DICHLORO-1,1-DIFLUOROETHANE","1,2-Dichloro-1,1-difluoroethane","1,2-dichloro-1,1-difluoroethane",33144,DTXSID5031393,FC(F)(Cl)CCl,"InChI=1S/C2H2Cl2F2/c3-1-2(4,5)6/h1H2",SKDFWEPBABSFMG-UHFFFAOYSA-N,?,,-101.2,106305
106310,1653-40-3,1653-40-3,CC(C)CCCCCO,"1-HEPTANOL, 6-METHYL-",6-Methyl-1-heptanol,C8H18O,33148,DTXSID50872375,CC(C)CCCCCO,"InChI=1S/C8H18O/c1-8(2)6-4-3-5-7-9/h8-9H,3-7H2,1-2H3",BWDBEAQIHAEVLV-UHFFFAOYSA-N,?,,-106.0,106310
106314,1660-93-1,1660-93-1,Cc1c[n]c2c3[n]cc(C)c(C)c3ccc2c1C,"1,10-Phenanthroline, 3,4,7,8-tetramethyl-","1,10-Phenanthroline, 3,4,7,8-tetramethyl-","3,4,7,8-Tetramethyl-1,10-phenanthroline",33152,DTXSID2061856,Cc1c[n]c2c3[n]cc(C)c(C)c3ccc2c1C,"InChI=1S/C16H16N2/c1-9-7-17-15-13(11(9)3)5-6-14-12(4)10(2)8-18-16(14)15/h5-8H,1-4H3",NPAXPTHCUCUHPT-UHFFFAOYSA-N,?,,278.5,106314
106319,1671-75-6,1671-75-6,CCCCCCC(=O)c1ccccc1,"1-Heptanone, 1-phenyl-",Heptanophenone,1-phenylheptan-1-one,33156,DTXSID9048194,CCCCCCC(=O)c1ccccc1,"InChI=1S/C13H18O/c1-2-3-4-8-11-13(14)12-9-6-5-7-10-12/h5-7,9-10H,2-4,8,11H2,1H3",UXMQORVHJMUQFD-UHFFFAOYSA-N,?,,16.4,106319
106323,1674-37-9,1674-37-9,CCCCCCCC(=O)c1ccccc1,"1-Octanone, 1-phenyl-",Octanophenone,1-Phenyloctan-1-one,33160,DTXSID5061871,CCCCCCCC(=O)c1ccccc1,"InChI=1S/C14H20O/c1-2-3-4-5-9-12-14(15)13-10-7-6-8-11-13/h6-8,10-11H,2-5,9,12H2,1H3",UDEVCZRUNOLVLU-UHFFFAOYSA-N,?,,22.8,106323
106329,1678-92-8,1678-92-8,CCCC1CCCCC1,N-PROPYLCYCLOHEXANE,"Cyclohexane, propyl-",Propylcyclohexane,33165,DTXSID4074699,CCCC1CCCCC1,"InChI=1S/C9H18/c1-2-6-9-7-4-3-5-8-9/h9H,2-8H2,1H3",DEDZSLCZHWTGOR-UHFFFAOYSA-N,?,,-94.9,106329
106333,1679-18-1,1679-18-1,OB(O)c1ccc(Cl)cc1,"Benzeneboronic acid, p-chloro-","Benzeneboronic acid, p-chloro-",(4-chlorophenyl)boronic acid,33169,DTXSID50168427,OB(O)c1ccc(Cl)cc1,"InChI=1S/C6H6BClO2/c8-6-3-1-5(2-4-6)7(9)10/h1-4,9-10H",CAYQIZIAYYNFCS-UHFFFAOYSA-N,?,,286.5,106333
106337,1689-82-3,1689-82-3,Oc1ccc(cc1)/N=N/c1ccccc1,P-PHENYLAZOPHENOL,p-Phenylazophenol,4-[(E)-phenyldiazenyl]phenol,33172,DTXSID3022160,Oc1ccc(cc1)N=Nc1ccccc1,"InChI=1S/C12H10N2O/c15-12-8-6-11(7-9-12)14-13-10-4-2-1-3-5-10/h1-9,15H/b14-13+",BEYOBVMPDRKTNR-BUHFOSPRSA-N,?,,155.0,106337
106341,1689-99-2,1689-99-2,CCCCCCCC(=O)Oc1c(Br)cc(cc1Br)C#N,BROMOXYNIL OCTANOATE,Bromoxynil octanoate,"2,6-dibromo-4-cyanophenyl octanoate",33176,DTXSID7023932,CCCCCCCC(=O)Oc1c(Br)cc(cc1Br)C#N,"InChI=1S/C15H17Br2NO2/c1-2-3-4-5-6-7-14(19)20-15-12(16)8-11(10-18)9-13(15)17/h8-9H,2-7H2,1H3",DQKWXTIYGWPGOO-UHFFFAOYSA-N,?,,45.5,106341
106345,1698-53-9,1698-53-9,O=C1C(Cl)=C(Cl)C=NN1c1ccccc1,"2-Phenyl-4,5-dichloro-3-pyridazinone","2-Phenyl-4,5-dichloro-3-pyridazinone","4,5-Dichloro-2-phenylpyridazin-3-one",33180,DTXSID60168751,O=C1C(Cl)=C(Cl)C=NN1c1ccccc1,InChI=1S/C10H6Cl2N2O/c11-8-6-13-14(10(15)9(8)12)7-4-2-1-3-5-7/h1-6H,VKWCOHVAHQOJGU-UHFFFAOYSA-N,?,,162.0,106345
106349,1706-73-6,1706-73-6,Oc1cc(Cc2ccccc2)c(O)cc1,"1,4-BENZENDIOL, 2-(PHENYLMETHYL)-","1,4-Benzenediol, 2-(phenylmethyl)-","2-(phenylmethyl)benzene-1,4-diol",33184,DTXSID2073273,Oc1cc(Cc2ccccc2)c(O)cc1,"InChI=1S/C13H12O2/c14-12-6-7-13(15)11(9-12)8-10-4-2-1-3-5-10/h1-7,9,14-15H,8H2",NEWPHVNFSATQRX-UHFFFAOYSA-N,?,,105.8,106349
106353,1711-07-5,1711-07-5,O=C(Cl)c1cccc(F)c1,"Benzoyl chloride, 3-fluoro-","Benzoyl chloride, 3-fluoro-",3-Fluorobenzoyl chloride,33188,DTXSID5061906,O=C(Cl)c1cccc(F)c1,InChI=1S/C7H4ClFO/c8-7(10)5-2-1-3-6(9)4-5/h1-4H,SYVNVEGIRVXRQH-UHFFFAOYSA-N,?,,-30.0,106353
106357,1721-89-7,1721-89-7,Cc1cc2ccccc2[n]c1C,"QUINOLINE, 2,3-DIMETHYL-","2,3-Dimethylquinoline","2,3-DIMETHYLQUINOLINE",33192,DTXSID00169207,Cc1cc2ccccc2[n]c1C,"InChI=1S/C11H11N/c1-8-7-10-5-3-4-6-11(10)12-9(8)2/h3-7H,1-2H3",FBOFHVFMPNNIKN-UHFFFAOYSA-N,?,,68.5,106357
106361,1723-94-0,1723-94-0,C(CN1CCOCC1)N1CCOCC1,"Morpholine, 4,4'-(1,2-ethanediyl)bis-","Morpholine, 4,4'-(1,2-ethanediyl)bis-",4-(2-morpholin-4-ylethyl)morpholine,33196,DTXSID9061914,C(CN1CCOCC1)N1CCOCC1,InChI=1S/C10H20N2O2/c1(11-3-7-13-8-4-11)2-12-5-9-14-10-6-12/h1-10H2,QRQKCMFVJWNKQI-UHFFFAOYSA-N,?,,75.0,106361
106365,1731-79-9,1731-79-9,COC(=O)CCCCCCCCCCC(=O)OC,"DODECANEDIOIC ACID, DIMETHYL ESTER","Dodecanedioic acid, dimethyl ester",Dimethyl dodecanedioate,33200,DTXSID0074390,COC(=O)CCCCCCCCCCC(=O)OC,"InChI=1S/C14H26O4/c1-17-13(15)11-9-7-5-3-4-6-8-10-12-14(16)18-2/h3-12H2,1-2H3",IZMOTZDBVPMOFE-UHFFFAOYSA-N,?,,31.9,106365
106369,1732-09-8,1732-09-8,COC(=O)CCCCCCC(=O)OC,"Octanedioic acid, dimethyl ester","Octanedioic acid, dimethyl ester",Dimethyl octanedioate,33204,DTXSID3061926,COC(=O)CCCCCCC(=O)OC,"InChI=1S/C10H18O4/c1-13-9(11)7-5-3-4-6-8-10(12)14-2/h3-8H2,1-2H3",LNLCRJXCNQABMV-UHFFFAOYSA-N,?,,-3.1,106369
106373,1740-22-3,1740-22-3,OC(c1cccc[n]1)(c1cccc[n]1)C1=CC(C=C1)=C(c1cccc[n]1)c1cccc[n]1,Pyrinoline,Pyrinoline,"[3-[di(pyridin-2-yl)methylidene]-1-cyclopenta-1,4-dienyl]-di(pyridin-2-yl)methanol",33208,DTXSID00169742,OC(c1cccc[n]1)(c1cccc[n]1)C1=CC(C=C1)=C(c1cccc[n]1)c1cccc[n]1,"InChI=1S/C27H20N4O/c32-27(24-11-3-7-17-30-24,25-12-4-8-18-31-25)21-14-13-20(19-21)26(22-9-1-5-15-28-22)23-10-2-6-16-29-23/h1-19,32H",NCZXKYCNHGRFHE-UHFFFAOYSA-N,?,,147.0,106373
106377,1746-01-6,1746-01-6,Clc1cc2Oc3cc(Cl)c(Cl)cc3Oc2cc1Cl,"2,3,7,8-TETRACHLORODIBENZO-P-DIOXIN","2,3,7,8-Tetrachlorodibenzo-p-dioxin","2,3,7,8-tetrachlorooxanthrene",33212,DTXSID2021315,Clc1cc2Oc3cc(Cl)c(Cl)cc3Oc2cc1Cl,InChI=1S/C12H4Cl4O2/c13-5-1-9-10(2-6(5)14)18-12-4-8(16)7(15)3-11(12)17-9/h1-4H,HGUFODBRKLSHSI-UHFFFAOYSA-N,?,,305.0,106377
106381,1747-60-0,1747-60-0,COc1cc2[s]c(N)[n]c2cc1,2-Amino-6-methoxybenzothiazole,2-Amino-6-methoxybenzothiazole,"6-methoxy-1,3-benzothiazol-2-amine",33216,DTXSID9024485,COc1cc2[s]c(N)[n]c2cc1,"InChI=1S/C8H8N2OS/c1-11-5-2-3-6-7(4-5)12-8(9)10-6/h2-4H,1H3,(H2,9,10)",KZHGPDSVHSDCMX-UHFFFAOYSA-N,?,,166.0,106381
106386,1758-68-5,1758-68-5,Nc1ccc2c(C(=O)c3ccccc3C2=O)c1N,"9,10-Anthracenedione, 1,2-diamino-","9,10-Anthracenedione, 1,2-diamino-","1,2-diaminoanthracene-9,10-dione",33221,DTXSID5061950,Nc1ccc2c(C(=O)c3ccccc3C2=O)c1N,"InChI=1S/C14H10N2O2/c15-10-6-5-9-11(12(10)16)14(18)8-4-2-1-3-7(8)13(9)17/h1-6H,15-16H2",LRMDXTVKVHKWEK-UHFFFAOYSA-N,?,,290.0,106386
106391,1759-81-5,1759-81-5,CC1CC=CC1,"CYCLOPENTENE, 4-METHYL-","Cyclopentene, 4-methyl-",4-METHYLCYCLOPENTENE,33225,DTXSID30170043,CC1CC=CC1,"InChI=1S/C6H10/c1-6-4-2-3-5-6/h2-3,6H,4-5H2,1H3",FWMRUAODTCVEQK-UHFFFAOYSA-N,?,,-160.8,106391
106395,1764-85-8,NOCAS_862751,NS(=O)(=O)c1cc2c(cc1Cl)NC(CSCC(F)(F)F)NS2(=O)=O,Epithiazide,,,33229,DTXSID50862751,NS(=O)(=O)c1cc2c(cc1Cl)NC(CSCC(F)(F)F)NS2(=O)=O,"InChI=1S/C10H11ClF3N3O4S3/c11-5-1-6-8(2-7(5)23(15,18)19)24(20,21)17-9(16-6)3-22-4-10(12,13)14/h1-2,9,16-17H,3-4H2,(H2,15,18,19)",RINBGYCKMGDWPY-UHFFFAOYSA-N,?,,206.5,106395
106400,1774-35-2,1774-35-2,Cc1ccc(cc1)S(=O)c1ccc(C)cc1,"Benzene, 1,1'-sulfinylbis(4-methyl- (9CI)","Benzene, 1,1'-sulfinylbis(4-methyl- (9CI)",1-methyl-4-(4-methylphenyl)sulfinylbenzene,33233,DTXSID40170296,Cc1ccc(cc1)S(=O)c1ccc(C)cc1,"InChI=1S/C14H14OS/c1-11-3-7-13(8-4-11)16(15)14-9-5-12(2)6-10-14/h3-10H,1-2H3",MJWNJEJCQHNDNM-UHFFFAOYSA-N,?,,95.0,106400
106405,1779-81-3,1779-81-3,NC1=NCCS1,"2-Thiazolamine, 4,5-dihydro-","2-Thiazolamine, 4,5-dihydro-","4,5-dihydro-1,3-thiazol-2-amine",33237,DTXSID4061961,NC1=NCCS1,"InChI=1S/C3H6N2S/c4-3-5-1-2-6-3/h1-2H2,(H2,4,5)",REGFWZVTTFGQOJ-UHFFFAOYSA-N,?,,85.3,106405
106414,1795-04-6,1795-04-6,Cc1c(C)c[s]c1C,"THIOPHENE, 2,3,4-TRIMETHYL-","Thiophene, 2,3,4-trimethyl-","2,3,4-TRIMETHYLTHIOPHENE",33244,DTXSID2073277,Cc1c(C)c[s]c1C,"InChI=1S/C7H10S/c1-5-4-8-7(3)6(5)2/h4H,1-3H3",MAVVDCDMBKFUES-UHFFFAOYSA-N,?,,-26.2,106414
106418,1795-17-1,1795-17-1,CCCCCCCCCCCCC1CCCCC1,DODECYLCYCLOHEXANE,"Cyclohexane, dodecyl-",DODECYLCYCLOHEXANE,33248,DTXSID3061974,CCCCCCCCCCCCC1CCCCC1,"InChI=1S/C18H36/c1-2-3-4-5-6-7-8-9-10-12-15-18-16-13-11-14-17-18/h18H,2-17H2,1H3",BLRBGKYYWDBAQQ-UHFFFAOYSA-N,?,,12.5,106418
106424,1801-72-5,1801-72-5,C=CCNC(=O)NCC=C,DIALLYL UREA,NSC 102722,"1,3-di(prop-2-enyl)urea",33252,DTXSID80170917,C=CCNC(=O)NCC=C,"InChI=1S/C7H12N2O/c1-3-5-8-7(10)9-6-4-2/h3-4H,1-2,5-6H2,(H2,8,9,10)",QRWVOJLTHSRPOA-UHFFFAOYSA-N,?,,91.5,106424
106428,1806-34-4,1806-34-4,c1[n]c(oc1-c1ccccc1)-c1ccc(cc1)-c1[n]cc(o1)-c1ccccc1,"2,2'-(1,4-PHENYLENE)BIS(5-PHENYLOXAZOLE)","Oxazole, 2,2'-(1,4-phenylene)bis[5-phenyl-","5-phenyl-2-[4-(5-phenyl-1,3-oxazol-2-yl)phenyl]-1,3-oxazole",33256,DTXSID7061984,c1[n]c(oc1-c1ccccc1)-c1ccc(cc1)-c1[n]cc(o1)-c1ccccc1,InChI=1S/C24H16N2O2/c1-3-7-17(8-4-1)21-15-25-23(27-21)19-11-13-20(14-12-19)24-26-16-22(28-24)18-9-5-2-6-10-18/h1-16H,MASVCBBIUQRUKL-UHFFFAOYSA-N,?,,245.0,106428
106432,1818-07-1,1818-07-1,CCCCCCCCOc1ccccc1,"Benzene, (octyloxy)-",Octyl phenyl ether,octoxybenzene,33260,DTXSID1061994,CCCCCCCCOc1ccccc1,"InChI=1S/C14H22O/c1-2-3-4-5-6-10-13-15-14-11-8-7-9-12-14/h7-9,11-12H,2-6,10,13H2,1H3",ZPIRTVJRHUMMOI-UHFFFAOYSA-N,?,,8.0,106432
106437,1821-36-9,1821-36-9,C1CCCCC1Nc1ccccc1,"Benzenamine, N-cyclohexyl-",N-Cyclohexylaniline,N-Cyclohexylaniline,33264,DTXSID6061997,C1CCCCC1Nc1ccccc1,"InChI=1S/C12H17N/c1-3-7-11(8-4-1)13-12-9-5-2-6-10-12/h1,3-4,7-8,12-13H,2,5-6,9-10H2",TXTHKGMZDDTZFD-UHFFFAOYSA-N,?,,16.0,106437
106441,1825-30-5,1825-30-5,Clc1cccc2c1cccc2Cl,"1,5-DICHLORONAPHTHALENE","Naphthalene, 1,5-dichloro-","1,5-DICHLORONAPHTHALENE",33268,DTXSID1061998,Clc1cccc2c1cccc2Cl,InChI=1S/C10H6Cl2/c11-9-5-1-3-7-8(9)4-2-6-10(7)12/h1-6H,ZBQZXTBAGBTUAD-UHFFFAOYSA-N,?,,107.0,106441
106445,1835-65-0,1835-65-0,N#Cc1c(C#N)c(F)c(F)c(F)c1F,Tetrafluorophthalonitrile,Tetrafluorophthalonitrile,"3,4,5,6-tetrafluorophthalonitrile",33272,DTXSID6075142,N#Cc1c(C#N)c(F)c(F)c(F)c1F,InChI=1S/C8F4N2/c9-5-3(1-13)4(2-14)6(10)8(12)7(5)11,OFLRJMBSWDXSPG-UHFFFAOYSA-N,?,,83.0,106445
106449,1843-05-6,1843-05-6,CCCCCCCCOc1cc(O)c(cc1)C(=O)c1ccccc1,"Methanone,  2-hydroxy-4-(octyloxy)phenyl phenyl-",Octabenzone,[2-hydroxy-4-(octyloxy)phenyl](phenyl)methanone,33276,DTXSID9027441,CCCCCCCCOc1cc(O)c(cc1)C(=O)c1ccccc1,"InChI=1S/C21H26O3/c1-2-3-4-5-6-10-15-24-18-13-14-19(20(22)16-18)21(23)17-11-8-7-9-12-17/h7-9,11-14,16,22H,2-6,10,15H2,1H3",QUAMTGJKVDWJEQ-UHFFFAOYSA-N,?,,48.5,106449
106453,1852-17-1,1852-17-1,O=C1NCCCN1,"2(1H)-Pyrimidinone, tetrahydro-",Tetrahydro-2-pyrimidinone,tetrahydropyrimidin-2(1H)-one,33280,DTXSID9051820,O=C1NCCCN1,"InChI=1S/C4H8N2O/c7-4-5-2-1-3-6-4/h1-3H2,(H2,5,6,7)",NQPJDJVGBDHCAD-UHFFFAOYSA-N,?,,265.0,106453
106457,1861-40-1,1861-40-1,CCCCN(CC)c1c(cc(cc1[N+]([O-])=O)C(F)(F)F)[N+]([O-])=O,BENEFIN,Benfluralin,"N-butyl-N-ethyl-2,6-dinitro-4-(trifluoromethyl)aniline",33284,DTXSID3023899,CCCCN(CC)c1c(cc(cc1[N+]([O-])=O)C(F)(F)F)[N+]([O-])=O,"InChI=1S/C13H16F3N3O4/c1-3-5-6-17(4-2)12-10(18(20)21)7-9(13(14,15)16)8-11(12)19(22)23/h7-8H,3-6H2,1-2H3",SMDHCQAYESWHAE-UHFFFAOYSA-N,?,,66.0,106457
106462,1871-52-9,NOCAS_870914,C1CC=CC=CC=C1,"1,3,5-CYCLOOCTATRIENE",,,33288,DTXSID70870914,C1CC=CC=CC=C1,"InChI=1S/C8H10/c1-2-4-6-8-7-5-3-1/h1-6H,7-8H2/b2-1-,5-3-,6-4-",ICPMUWPXCAVOOQ-XCADPSHZSA-N,?,,-83.0,106462
106466,1874-54-0,1874-54-0,Nc1[n]c[n]c2c1[n]c[n]2[C@]1(CO)O[C@H](CO)[C@@H](O)[C@H]1O,PSICOFURANINE,Psicofuranine,"(2R,3R,4S,5R)-2-(6-aminopurin-9-yl)-2,5-bis(hydroxymethyl)oxolane-3,4-diol",33292,DTXSID80172052,Nc1[n]c[n]c2c1[n]c[n]2C1(CO)OC(CO)C(O)C1O,"InChI=1S/C11H15N5O5/c12-9-6-10(14-3-13-9)16(4-15-6)11(2-18)8(20)7(19)5(1-17)21-11/h3-5,7-8,17-20H,1-2H2,(H2,12,13,14)",BNZYRKVSCLSXSJ-UHFFFAOYSA-N,?,,212.0,106466
106471,1878-66-6,1878-66-6,OC(=O)Cc1ccc(Cl)cc1,P-CHLOROPHENYLACETIC ACID,p-Chlorophenylacetic acid,2-(4-chlorophenyl)acetic acid,33296,DTXSID7062031,OC(=O)Cc1ccc(Cl)cc1,"InChI=1S/C8H7ClO2/c9-7-3-1-6(2-4-7)5-8(10)11/h1-4H,5H2,(H,10,11)",CDPKJZJVTHSESZ-UHFFFAOYSA-N,?,,106.5,106471
106475,1879-09-0,1879-09-0,Cc1cc(c(O)c(C)c1)C(C)(C)C,"2-(1,1-DIMETHYLETHYL)-4,6-DIMETHYLPHENOL","6-tert-Butyl-2,4-dimethylphenol","2-tert-butyl-4,6-dimethylphenol",33300,DTXSID6041551,Cc1cc(c(O)c(C)c1)C(C)(C)C,"InChI=1S/C12H18O/c1-8-6-9(2)11(13)10(7-8)12(3,4)5/h6-7,13H,1-5H3",OPLCSTZDXXUYDU-UHFFFAOYSA-N,?,,22.3,106475
106479,1885-35-4,1885-35-4,COc1c(cc(cc1OC)C#N)OC,"Benzonitrile, 3,4,5-trimethoxy-","Benzonitrile, 3,4,5-trimethoxy-","3,4,5-Trimethoxybenzonitrile",33304,DTXSID70172203,COc1c(cc(cc1OC)C#N)OC,"InChI=1S/C10H11NO3/c1-12-8-4-7(6-11)5-9(13-2)10(8)14-3/h4-5H,1-3H3",OSBQUSPVORCDCU-UHFFFAOYSA-N,?,,93.8,106479
106483,1892-29-1,1892-29-1,OCCSSCCO,2-Hydroxyethyl disulfide,2-Hydroxyethyl disulfide,"2,2'-disulfanediyldiethanol",33308,DTXSID4044404,OCCSSCCO,"InChI=1S/C4H10O2S2/c5-1-3-7-8-4-2-6/h5-6H,1-4H2",KYNFOMQIXZUKRK-UHFFFAOYSA-N,?,,26.0,106483
106493,1912-26-1,1912-26-1,CCNc1[n]c([n]c(Cl)[n]1)N(CC)CC,TRIETAZINE,Trietazine,"6-chloro-N,N,N'-triethyl-1,3,5-triazine-2,4-diamine",33316,DTXSID2042488,CCNc1[n]c([n]c(Cl)[n]1)N(CC)CC,"InChI=1S/C9H16ClN5/c1-4-11-8-12-7(10)13-9(14-8)15(5-2)6-3/h4-6H2,1-3H3,(H,11,12,13,14)",HFBWPRKWDIRYNX-UHFFFAOYSA-N,?,,101.0,106493
106497,1918-02-1,1918-02-1,Nc1c(Cl)c([n]c(Cl)c1Cl)C(O)=O,PICLORAM,Picloram,C6H3Cl3N2O2,33320,DTXSID1021160,Nc1c(Cl)c([n]c(Cl)c1Cl)C(O)=O,"InChI=1S/C6H3Cl3N2O2/c7-1-3(10)2(8)5(9)11-4(1)6(12)13/h(H2,10,11)(H,12,13)",NQQVFXUMIDALNH-UHFFFAOYSA-N,?,,218.5,106497
106501,1919-48-8,1919-48-8,c1ccccc1Oc1[n]c([n]c([n]1)Oc1ccccc1)Oc1ccccc1,"1,3,5-Triazine, 2,4,6-triphenoxy-","1,3,5-Triazine, 2,4,6-triphenoxy-","2,4,6-tris(phenoxy)-1,3,5-triazine",33324,DTXSID9062061,c1ccccc1Oc1[n]c([n]c([n]1)Oc1ccccc1)Oc1ccccc1,InChI=1S/C21H15N3O3/c1-4-10-16(11-5-1)25-19-22-20(26-17-12-6-2-7-13-17)24-21(23-19)27-18-14-8-3-9-15-18/h1-15H,IYDYVVVAQKFGBS-UHFFFAOYSA-N,?,,233.5,106501
106506,1930-72-9,1930-72-9,N#Cc1cc(c(Cl)c(c1)[N+]([O-])=O)[N+]([O-])=O,"Benzonitrile, 4-chloro-3,5-dinitro-","Benzonitrile, 4-chloro-3,5-dinitro-","4-Chloro-3,5-dinitrobenzonitrile",33328,DTXSID70172905,N#Cc1cc(c(Cl)c(c1)[N+]([O-])=O)[N+]([O-])=O,InChI=1S/C7H2ClN3O4/c8-7-5(10(12)13)1-4(3-9)2-6(7)11(14)15/h1-2H,SCGDEDHSPCXGEC-UHFFFAOYSA-N,?,,140.75,106506
106512,1942-45-6,1942-45-6,CCCC#CCCC,4-OCTYNE,4-Octyne,Oct-4-yne,33332,DTXSID6074338,CCCC#CCCC,"InChI=1S/C8H14/c1-3-5-7-8-6-4-2/h3-6H2,1-2H3",GZTNBKQTTZSQNS-UHFFFAOYSA-N,?,,-101.0,106512
106517,1945-53-5,1945-53-5,CC(C)C1CCC2=C(CC[C@@H]3[C@]2(C)CCC[C@@]3(C)C(O)=O)C=1,PALUSTRIC ACID,Palustric acid,C20H30O2,33336,DTXSID90858759,CC(C)C1CCC2=C(CCC3C2(C)CCCC3(C)C(O)=O)C=1,"InChI=1S/C20H30O2/c1-13(2)14-6-8-16-15(12-14)7-9-17-19(16,3)10-5-11-20(17,4)18(21)22/h12-13,17H,5-11H2,1-4H3,(H,21,22)",MLBYBBUZURKHAW-UHFFFAOYSA-N,?,,164.5,106517
106523,1953-54-4,1953-54-4,Oc1cc2cc[nH]c2cc1,1H-INDOL-5-OL,5-Hydroxyindole,1H-Indol-5-ol,33340,DTXSID00173187,Oc1cc2cc[nH]c2cc1,"InChI=1S/C8H7NO/c10-7-1-2-8-6(5-7)3-4-9-8/h1-5,9-10H",LMIQERWZRIFWNZ-UHFFFAOYSA-N,?,,107.5,106523
106527,1969-43-3,1969-43-3,CCCCCCCOCC,"HEPTANE, 1-ETHOXY-","Heptane, 1-ethoxy-",C9H20O,33344,DTXSID80334113,CCCCCCCOCC,"InChI=1S/C9H20O/c1-3-5-6-7-8-9-10-4-2/h3-9H2,1-2H3",UTBWZYCUAYXAKT-UHFFFAOYSA-N,?,,-68.3,106527
106531,1975-78-6,1975-78-6,CCCCCCCCCC#N,Decanenitrile,Decanenitrile,decanenitrile,33348,DTXSID9027449,CCCCCCCCCC#N,"InChI=1S/C10H19N/c1-2-3-4-5-6-7-8-9-10-11/h2-9H2,1H3",HBZDPWBWBJMYRY-UHFFFAOYSA-N,?,,-17.9,106531
106535,1982-47-4,1982-47-4,CN(C)C(=O)Nc1ccc(cc1)Oc1ccc(Cl)cc1,CHLOROXURON,Chloroxuron,"3-[4-(4-chlorophenoxy)phenyl]-1,1-dimethylurea",33352,DTXSID7040287,CN(C)C(=O)Nc1ccc(cc1)Oc1ccc(Cl)cc1,"InChI=1S/C15H15ClN2O2/c1-18(2)15(19)17-12-5-9-14(10-6-12)20-13-7-3-11(16)4-8-13/h3-10H,1-2H3,(H,17,19)",IVUXTESCPZUGJC-UHFFFAOYSA-N,?,,151.0,106535
106540,1984-59-4,1984-59-4,COc1cccc(Cl)c1Cl,"Benzene, 1,2-dichloro-3-methoxy-","2,3-Dichloroanisole","1,2-Dichloro-3-methoxybenzene",33356,DTXSID1062095,COc1cccc(Cl)c1Cl,"InChI=1S/C7H6Cl2O/c1-10-6-4-2-3-5(8)7(6)9/h2-4H,1H3",HFEASCCDHUVYKU-UHFFFAOYSA-N,?,,32.0,106540
106544,1986-90-9,1986-90-9,CCCCCS(=O)CCCCC,Pentyl sulfoxide,Pentyl sulfoxide,1-pentylsulfinylpentane,33360,DTXSID90173616,CCCCCS(=O)CCCCC,"InChI=1S/C10H22OS/c1-3-5-7-9-12(11)10-8-6-4-2/h3-10H2,1-2H3",LAAFGFCPKSXKEM-UHFFFAOYSA-N,?,,58.0,106544
106552,2008-39-1,2008-39-1,CNC.OC(=O)COc1ccc(Cl)cc1Cl,"2,4-D, DIMETHYLAMINE SALT","2,4-D, Dimethylamine salt",C10H13Cl2NO3,33365,DTXSID0024896,OC(=O)COc1ccc(Cl)cc1Cl,"InChI=1S/C8H6Cl2O3/c9-5-1-2-7(6(10)3-5)13-4-8(11)12/h1-3H,4H2,(H,11,12)",OVSKIKFHRZPJSS-UHFFFAOYSA-N,CNC,71.0,86.0,106552
106556,2016-42-4,2016-42-4,CCCCCCCCCCCCCCN,1-TETRADECANAMINE,Tetradecylamine,tetradecan-1-amine,33369,DTXSID9040768,CCCCCCCCCCCCCCN,"InChI=1S/C14H31N/c1-2-3-4-5-6-7-8-9-10-11-12-13-14-15/h2-15H2,1H3",PLZVEHJLHYMBBY-UHFFFAOYSA-N,?,,83.1,106556
106561,2022-85-7,2022-85-7,NC1=NC(=O)NC=C1F,FLUCYTOSINE,Flucytosine,4-amino-5-fluoropyrimidin-2(1H)-one,33373,DTXSID3023059,NC1=NC(=O)NC=C1F,"InChI=1S/C4H4FN3O/c5-2-1-7-4(9)8-3(2)6/h1H,(H3,6,7,8,9)",XRECTZIEBJDKEO-UHFFFAOYSA-N,?,,296.0,106561