ChemID,source_casrn,CAS,SMILES,NAME,preferred_name,iupac,MPID,dsstox_substance_id,Canonical_QSARr,InChI_Code_QSARr,InChI Key_QSARr,Salt_Solvent,Salt_Solvent_ID,MP,ID
101778,106-97-8,106-97-8,CCCC,N-BUTANE,Butane,C4H10,29043,DTXSID7024665,CCCC,"InChI=1S/C4H10/c1-3-4-2/h3-4H2,1-2H3",IJDNQMDRQITEOD-UHFFFAOYSA-N,?,,-138.2,101778
101783,107-02-8,107-02-8,C=CC=O,ACROLEIN,Acrolein,prop-2-enal,29047,DTXSID5020023,C=CC=O,"InChI=1S/C3H4O/c1-2-3-4/h2-3H,1H2",HGINCPLSRVDWNT-UHFFFAOYSA-N,?,,-87.7,101783
101787,107-06-2,107-06-2,ClCCCl,"1,2-DICHLOROETHANE","1,2-Dichloroethane",C2H4Cl2,29051,DTXSID6020438,ClCCCl,InChI=1S/C2H4Cl2/c3-1-2-4/h1-2H2,WSLDOOZREJYCGB-UHFFFAOYSA-N,?,,-35.5,101787
101791,107-11-9,107-11-9,C=CCN,ALLYLAMINE,Allylamine,C3H7N,29055,DTXSID8024440,C=CCN,"InChI=1S/C3H7N/c1-2-3-4/h2H,1,3-4H2",VVJKKWFAADXIJK-UHFFFAOYSA-N,?,,-88.2,101791
101795,107-18-6,107-18-6,C=CCO,ALLYL ALCOHOL,Allyl alcohol,prop-2-en-1-ol,29059,DTXSID8020044,C=CCO,"InChI=1S/C3H6O/c1-2-3-4/h2,4H,1,3H2",XXROGKLTLUQVRX-UHFFFAOYSA-N,?,,-129.0,101795
101799,107-22-2,107-22-2,O=CC=O,GLYOXAL,Glyoxal,ethanedial,29063,DTXSID5025364,O=CC=O,InChI=1S/C2H2O2/c3-1-2-4/h1-2H,LEQAOMBKQFMDFZ-UHFFFAOYSA-N,?,,15.0,101799
101804,107-31-3,107-31-3,COC=O,METHYLFORMATE,Methyl formate,methyl formate,29067,DTXSID5025609,COC=O,"InChI=1S/C2H4O2/c1-4-2-3/h2H,1H3",TZIHFWKZFHZASV-UHFFFAOYSA-N,?,,-99.0,101804
101809,107-39-1,107-39-1,CC(=C)CC(C)(C)C,"2,4,4-TRIMETHYL-1-PENTENE","2,4,4-Trimethyl-1-pentene","2,4,4-trimethylpent-1-ene",29071,DTXSID4026765,CC(=C)CC(C)(C)C,"InChI=1S/C8H16/c1-7(2)6-8(3,4)5/h1,6H2,2-5H3",FXNDIJDIPNCZQJ-UHFFFAOYSA-N,?,,-93.5,101809
101813,107-46-0,107-46-0,C[Si](C)(C)O[Si](C)(C)C,HEXAMETHYLDISILOXANE,Hexamethyldisiloxane,hexamethyldisiloxane,29075,DTXSID4026769,C[Si](C)(C)O[Si](C)(C)C,"InChI=1S/C6H18OSi2/c1-8(2,3)7-9(4,5)6/h1-6H3",UQEAIHBTYFGYIE-UHFFFAOYSA-N,?,,-66.0,101813
101817,107-51-7,107-51-7,C[Si](C)(O[Si](C)(C)C)O[Si](C)(C)C,OCTAMETHYLTRISILOXANE,Octamethyltrisiloxane,octamethyltrisiloxane,29079,DTXSID9040710,C[Si](C)(O[Si](C)(C)C)O[Si](C)(C)C,"InChI=1S/C8H24O2Si3/c1-11(2,3)9-13(7,8)10-12(4,5)6/h1-8H3",CXQXSVUQTKDNFP-UHFFFAOYSA-N,?,,-80.0,101817
101821,107-66-4,107-66-4,CCCCOP(O)(=O)OCCCC,DI-N-BUTYL PHOSPHATE,"Phosphoric acid, dibutyl ester",dibutyl hydrogen phosphate,29083,DTXSID3040728,CCCCOP(O)(=O)OCCCC,"InChI=1S/C8H19O4P/c1-3-5-7-11-13(9,10)12-8-6-4-2/h3-8H2,1-2H3,(H,9,10)",JYFHYPJRHGVZDY-UHFFFAOYSA-N,?,,-13.0,101821
101825,107-82-4,107-82-4,CC(C)CCBr,1-BROMO-3-METHYLBUTANE,"Butane, 1-bromo-3-methyl-",1-Bromo-3-methylbutane,29087,DTXSID7059353,CC(C)CCBr,"InChI=1S/C5H11Br/c1-5(2)3-4-6/h5H,3-4H2,1-2H3",YXZFFTJAHVMMLF-UHFFFAOYSA-N,?,,-112.0,101825
101829,107-91-5,107-91-5,NC(=O)CC#N,"Acetamide, 2-cyano-",2-Cyanoacetamide,2-cyanoacetamide,29090,DTXSID2051552,NC(=O)CC#N,"InChI=1S/C3H4N2O/c4-2-1-3(5)6/h1H2,(H2,5,6)",DGJMPUGMZIKDRO-UHFFFAOYSA-N,?,,121.5,101829
101833,107-96-0,107-96-0,OC(=O)CCS,3-MERCAPTOPROPIONIC ACID,3-Mercaptopropanoic acid,3-sulfanylpropanoic acid,29094,DTXSID8026775,OC(=O)CCS,"InChI=1S/C3H6O2S/c4-3(5)1-2-6/h6H,1-2H2,(H,4,5)",DKIDEFUBRARXTE-UHFFFAOYSA-N,?,,18.0,101833
101837,108-05-4,108-05-4,CC(=O)OC=C,VINYL ACETATE,Vinyl acetate,ethenyl acetate,29098,DTXSID3021431,CC(=O)OC=C,"InChI=1S/C4H6O2/c1-3-6-4(2)5/h3H,1H2,2H3",XTXRWKRVRITETP-UHFFFAOYSA-N,?,,-93.2,101837
101841,108-16-7,108-16-7,CC(O)CN(C)C,"2-Propanol, 1-(dimethylamino)-",Dimepranol,1-(dimethylamino)propan-2-ol,29102,DTXSID5031210,CC(O)CN(C)C,"InChI=1S/C5H13NO/c1-5(7)4-6(2)3/h5,7H,4H2,1-3H3",NCXUNZWLEYGQAH-UHFFFAOYSA-N,?,,124.0,101841
101845,108-22-5,108-22-5,CC(=O)OC(C)=C,1-PROPEN-2-OL ACETATE,Isopropenyl acetate,prop-1-en-2-yl acetate,29106,DTXSID3031492,CC(=O)OC(C)=C,"InChI=1S/C5H8O2/c1-4(2)7-5(3)6/h1H2,2-3H3",HETCEOQFVDFGSY-UHFFFAOYSA-N,?,,-92.9,101845
101853,108-33-8,108-33-8,Cc1[n][n]c(N)[s]1,"1,3,4-Thiadiazole, 2-amino-5-methyl-","1,3,4-Thiadiazole, 2-amino-5-methyl-","5-Methyl-1,3,4-thiadiazol-2-amine",29113,DTXSID70148347,Cc1[n][n]c(N)[s]1,"InChI=1S/C3H5N3S/c1-2-5-6-3(4)7-2/h1H3,(H2,4,6)",HMPUHXCGUHDVBI-UHFFFAOYSA-N,?,,224.5,101853
101857,108-39-4,108-39-4,Cc1cc(O)ccc1,M-CRESOL,m-Cresol,3-methylphenol,29117,DTXSID6024200,Cc1cc(O)ccc1,"InChI=1S/C7H8O/c1-6-3-2-4-7(8)5-6/h2-5,8H,1H3",RLSSMJSEOOYNOY-UHFFFAOYSA-N,?,,11.8,101857
101861,108-43-0,108-43-0,Oc1cc(Cl)ccc1,3-CHLOROPHENOL,3-Chlorophenol,3-chlorophenol,29121,DTXSID4024800,Oc1cc(Cl)ccc1,"InChI=1S/C6H5ClO/c7-5-2-1-3-6(8)4-5/h1-4,8H",HORNXRXVQWOLPJ-UHFFFAOYSA-N,?,,32.6,101861
101865,108-47-4,108-47-4,Cc1cc(C)[n]cc1,"2,4-DIMETHYLPYRIDINE","2,4-Dimethylpyridine","2,4-dimethylpyridine",29125,DTXSID2051556,Cc1cc(C)[n]cc1,"InChI=1S/C7H9N/c1-6-3-4-8-7(2)5-6/h3-5H,1-2H3",JYYNAJVZFGKDEQ-UHFFFAOYSA-N,?,,-64.0,101865
101869,108-55-4,108-55-4,O=C1CCCC(=O)O1,GLUTARIC ANHYDRIDE,Glutaric anhydride,"dihydro-2H-pyran-2,6(3H)-dione",29129,DTXSID5044362,O=C1CCCC(=O)O1,InChI=1S/C5H6O3/c6-4-2-1-3-5(7)8-4/h1-3H2,VANNPISTIUFMLH-UHFFFAOYSA-N,?,,56.3,101869
101874,108-64-5,108-64-5,CCOC(=O)CC(C)C,ETHYL ISOVALERATE,Ethyl isovalerate,ethyl 3-methylbutanoate,29133,DTXSID3047057,CCOC(=O)CC(C)C,"InChI=1S/C7H14O2/c1-4-9-7(8)5-6(2)3/h6H,4-5H2,1-3H3",PPXUHEORWJQRHJ-UHFFFAOYSA-N,?,,-99.3,101874
101878,108-70-3,108-70-3,Clc1cc(Cl)cc(Cl)c1,"1,3,5-TRICHLOROBENZENE","1,3,5-Trichlorobenzene",C6H3Cl3,29137,DTXSID8026195,Clc1cc(Cl)cc(Cl)c1,InChI=1S/C6H3Cl3/c7-4-1-5(8)3-6(9)2-4/h1-3H,XKEFYDZQGKAQCN-UHFFFAOYSA-N,?,,63.5,101878
101882,108-77-0,108-77-0,Clc1[n]c(Cl)[n]c(Cl)[n]1,CYANURIC CHLORIDE,"2,4,6-Trichloro-s-triazine","2,4,6-trichloro-1,3,5-triazine",29141,DTXSID6026799,Clc1[n]c(Cl)[n]c(Cl)[n]1,InChI=1S/C3Cl3N3/c4-1-7-2(5)9-3(6)8-1,MGNCLNQXLYJVJD-UHFFFAOYSA-N,?,,154.0,101882
101886,108-85-0,108-85-0,BrC1CCCCC1,BROMOCYCLOHEXANE,Bromocyclohexane,bromocyclohexane,29145,DTXSID1044148,BrC1CCCCC1,"InChI=1S/C6H11Br/c7-6-4-2-1-3-5-6/h6H,1-5H2",AQNQQHJNRPDOQV-UHFFFAOYSA-N,?,,-56.5,101886
101890,108-89-4,108-89-4,Cc1cc[n]cc1,4-METHYLPYRIDINE,4-Methylpyridine,4-methylpyridine,29149,DTXSID4021892,Cc1cc[n]cc1,"InChI=1S/C6H7N/c1-6-2-4-7-5-3-6/h2-5H,1H3",FKNQCJSGGFJEIZ-UHFFFAOYSA-N,?,,3.66,101890
101894,108-94-1,108-94-1,O=C1CCCCC1,CYCLOHEXANONE,Cyclohexanone,cyclohexanone,29153,DTXSID6020359,O=C1CCCCC1,InChI=1S/C6H10O/c7-6-4-2-1-3-5-6/h1-5H2,JHIVVAPYMSGYDF-UHFFFAOYSA-N,?,,-31.0,101894
101898,108-99-6,108-99-6,Cc1c[n]ccc1,3-METHYLPYRIDINE,3-Methylpyridine,3-methylpyridine,29157,DTXSID9021897,Cc1c[n]ccc1,"InChI=1S/C6H7N/c1-6-3-2-4-7-5-6/h2-5H,1H3",ITQTTZVARXURQS-UHFFFAOYSA-N,?,,-18.1,101898
101902,109-07-9,109-07-9,CC1CNCCN1,"Piperazine, 2-methyl-",2-Methylpiperazine,2-methylpiperazine,29160,DTXSID1021900,CC1CNCCN1,"InChI=1S/C5H12N2/c1-5-4-6-2-3-7-5/h5-7H,2-4H2,1H3",JOMNTHCQHJPVAZ-UHFFFAOYSA-N,?,,62.0,101902
101906,109-21-7,109-21-7,CCCC(=O)OCCCC,N-BUTYLBUTYRATE,Butyl butyrate,butyl butanoate,29164,DTXSID7041702,CCCC(=O)OCCCC,"InChI=1S/C8H16O2/c1-3-5-7-10-8(9)6-4-2/h3-7H2,1-2H3",XUPYJHCZDLZNFP-UHFFFAOYSA-N,?,,-91.5,101906
101910,109-52-4,109-52-4,CCCCC(O)=O,PENTANOIC ACID,Pentanoic acid,pentanoic acid,29168,DTXSID7021655,CCCCC(O)=O,"InChI=1S/C5H10O2/c1-2-3-4-5(6)7/h2-4H2,1H3,(H,6,7)",NQPDZGIKBAWPEJ-UHFFFAOYSA-N,?,,-34.0,101910
101914,109-57-9,109-57-9,C=CCNC(N)=S,ALLYLTHIOUREA,Allylthiourea,1-prop-2-en-1-ylthiourea,29172,DTXSID3024449,C=CCNC(N)=S,"InChI=1S/C4H8N2S/c1-2-3-6-4(5)7/h2H,1,3H2,(H3,5,6,7)",HTKFORQRBXIQHD-UHFFFAOYSA-N,?,,78.0,101914
101919,109-66-0,109-66-0,CCCCC,N-PENTANE,Pentane,C5H12,29176,DTXSID2025846,CCCCC,"InChI=1S/C5H12/c1-3-5-4-2/h3-5H2,1-2H3",OFBQJSOFQDEBGM-UHFFFAOYSA-N,?,,-129.7,101919
101923,109-73-9,109-73-9,CCCCN,N-BUTYLAMINE,Butylamine,butan-1-amine,29180,DTXSID1021904,CCCCN,"InChI=1S/C4H11N/c1-2-3-4-5/h2-5H2,1H3",HQABUPZFAYXKJW-UHFFFAOYSA-N,?,,-50.0,101923
101927,109-78-4,109-78-4,N#CCCO,ETHYLENE CYANOHYDRIN,3-Hydroxypropanenitrile,3-hydroxypropanenitrile,29184,DTXSID1025433,N#CCCO,"InChI=1S/C3H5NO/c4-2-1-3-5/h5H,1,3H2",WSGYTJNNHPZFKR-UHFFFAOYSA-N,?,,-46.0,101927
101931,109-83-1,109-83-1,CNCCO,2-(METHYLAMINO)ETHANOL,N-Methylethanolamine,2-(methylamino)ethanol,29188,DTXSID5025603,CNCCO,"InChI=1S/C3H9NO/c1-4-2-3-5/h4-5H,2-3H2,1H3",OPKOKAMJFNKNAS-UHFFFAOYSA-N,?,,-4.5,101931
101935,109-89-7,109-89-7,CCNCC,DIETHYLAMINE,Diethylamine,N-ethylethanamine,29192,DTXSID6021909,CCNCC,"InChI=1S/C4H11N/c1-3-5-4-2/h5H,3-4H2,1-2H3",HPNMFZURTQLUMO-UHFFFAOYSA-N,?,,-50.0,101935
101939,109-97-7,109-97-7,c1ccc[nH]1,PYRROLE,Pyrrole,1H-pyrrole,29196,DTXSID5021910,c1ccc[nH]1,InChI=1S/C4H5N/c1-2-4-5-3-1/h1-5H,KAESVJOAVNADME-UHFFFAOYSA-N,?,,-23.4,101939
101943,110-02-1,110-02-1,c1ccc[s]1,THIOPHENE,Thiophene,thiophene,29200,DTXSID8026145,c1ccc[s]1,InChI=1S/C4H4S/c1-2-4-5-3-1/h1-4H,YTPLMLYBLZKORZ-UHFFFAOYSA-N,?,,-39.4,101943
101947,110-06-5,110-06-5,CC(C)(C)SSC(C)(C)C,"Disulfide, bis(1,1-dimethylethyl)",t-Butyl disulfide,2-(tert-butyldisulfanyl)-2-methylpropane,29203,DTXSID0021913,CC(C)(C)SSC(C)(C)C,"InChI=1S/C8H18S2/c1-7(2,3)9-10-8(4,5)6/h1-6H3",BKCNDTDWDGQHSD-UHFFFAOYSA-N,?,,-5.0,101947
101951,110-16-7,110-16-7,OC(=O)/C=C\C(O)=O,MALEIC ACID,Maleic acid,(2Z)-but-2-enedioic acid,29207,DTXSID8021517,OC(=O)C=CC(O)=O,"InChI=1S/C4H4O4/c5-3(6)1-2-4(7)8/h1-2H,(H,5,6)(H,7,8)/b2-1+",VZCYOOQTPOCHFL-OWOJBTEDSA-N,?,,130.5,101951
101955,110-27-0,110-27-0,CCCCCCCCCCCCCC(=O)OC(C)C,ISOPROPYL MYRISTATE,Isopropyl tetradecanoic acid,propan-2-yl tetradecanoate,29211,DTXSID0026838,CCCCCCCCCCCCCC(=O)OC(C)C,"InChI=1S/C17H34O2/c1-4-5-6-7-8-9-10-11-12-13-14-15-17(18)19-16(2)3/h16H,4-15H2,1-3H3",AXISYYRBXTVTFY-UHFFFAOYSA-N,?,,3.0,101955
101959,110-40-7,110-40-7,CCOC(=O)CCCCCCCCC(=O)OCC,DIETHYL SEBACATE,Diethyl decanedioate,diethyl decanedioate,29215,DTXSID0021915,CCOC(=O)CCCCCCCCC(=O)OCC,"InChI=1S/C14H26O4/c1-3-17-13(15)11-9-7-5-6-8-10-12-14(16)18-4-2/h3-12H2,1-2H3",ONKUXPIBXRRIDU-UHFFFAOYSA-N,?,,5.0,101959
101963,110-45-2,110-45-2,CC(C)CCOC=O,ISOAMYL FORMATE,,,29219,DTXSID00861734,CC(C)CCOC=O,"InChI=1S/C6H12O2/c1-6(2)3-4-8-5-7/h5-6H,3-4H2,1-2H3",XKYICAQFSCFURC-UHFFFAOYSA-N,?,,-93.5,101963
101967,110-54-3,110-54-3,CCCCCC,N-HEXANE,Hexane,hexane,29223,DTXSID0021917,CCCCCC,"InChI=1S/C6H14/c1-3-5-6-4-2/h3-6H2,1-2H3",VLKZOEOYAKHREP-UHFFFAOYSA-N,?,,-95.3,101967
101971,110-59-8,110-59-8,CCCCC#N,VALERONITRILE,Valeronitrile,pentanenitrile,29227,DTXSID3026275,CCCCC#N,"InChI=1S/C5H9N/c1-2-3-4-5-6/h2-4H2,1H3",RFFFKMOABOFIDF-UHFFFAOYSA-N,?,,-96.2,101971
101975,110-63-4,110-63-4,OCCCCO,"1,4-BUTANEDIOL","1,4-Butanediol","butane-1,4-diol",29231,DTXSID2024666,OCCCCO,"InChI=1S/C4H10O2/c5-3-1-2-4-6/h5-6H,1-4H2",WERYXYBDKMZEQL-UHFFFAOYSA-N,?,,20.4,101975
101979,110-69-0,110-69-0,CCCC=NO,"Butanal, oxime",Butanal oxime,N-hydroxybutan-1-imine,29235,DTXSID2024664,CCCCN=O,"InChI=1S/C4H9NO/c1-2-3-4-5-6/h2-4H2,1H3",VVGONFMJWMFEMZ-UHFFFAOYSA-N,?,,-29.5,101979
101983,110-77-0,110-77-0,CCSCCO,"Ethanol, 2-(ethylthio)-","Ethanol, 2-(ethylthio)-",2-ethylsulfanylethanol,29239,DTXSID3059393,CCSCCO,"InChI=1S/C4H10OS/c1-2-6-4-3-5/h5H,2-4H2,1H3",LNRIEBFNWGMXKP-UHFFFAOYSA-N,?,,-100.0,101983
101987,110-83-8,110-83-8,C1CCCC=C1,CYCLOHEXENE,Cyclohexene,cyclohexene,29243,DTXSID9038717,C1CCCC=C1,"InChI=1S/C6H10/c1-2-4-6-5-3-1/h1-2H,3-6H2",HGCIXCUEYOPUTN-UHFFFAOYSA-N,?,,-103.5,101987
101991,110-88-3,110-88-3,C1OCOCO1,"1,3,5-TRIOXANE","1,3,5-Trioxane","1,3,5-trioxane",29246,DTXSID4021925,C1OCOCO1,InChI=1S/C3H6O3/c1-4-2-6-3-5-1/h1-3H2,BGJSXRVXTHVRSN-UHFFFAOYSA-N,?,,60.2,101991
101999,111-00-2,111-00-2,[Br-].[Br-].C[N+](C)(CCOC(=O)CCC(=O)OCC[N+](C)(C)CC)CC,Suxethonium Bromide,,,29253,DTXSID70878091,C[N+](C)(CCOC(=O)CCC(=O)OCC[N+](C)(C)CC)CC,"InChI=1S/C16H34N2O4/c1-7-17(3,4)11-13-21-15(19)9-10-16(20)22-14-12-18(5,6)8-2/h7-14H2,1-6H3/q+2",DIWYJMPVHQDIMM-UHFFFAOYSA-N,[Br-].[Br-],175.0,158.0,101999
102003,111-11-5,111-11-5,CCCCCCCC(=O)OC,METHYL OCTANOATE,Methyl octanoate,methyl octanoate,29257,DTXSID2026864,CCCCCCCC(=O)OC,"InChI=1S/C9H18O2/c1-3-4-5-6-7-8-9(10)11-2/h3-8H2,1-2H3",JGHZJRVDZXSNKQ-UHFFFAOYSA-N,?,,-40.0,102003
102007,111-16-0,111-16-0,OC(=O)CCCCCC(O)=O,PIMELIC ACID,Heptanedioic acid,heptanedioic acid,29261,DTXSID5021598,OC(=O)CCCCCC(O)=O,"InChI=1S/C7H12O4/c8-6(9)4-2-1-3-5-7(10)11/h1-5H2,(H,8,9)(H,10,11)",WLJVNTCWHIRURA-UHFFFAOYSA-N,?,,106.0,102007
102011,111-21-7,111-21-7,CC(=O)OCCOCCOCCOC(C)=O,ETHYLENEBIS(OXYETHYLENE)DIACETATE,Triethylene glycol diacetate,"ethane-1,2-diylbis(oxyethane-2,1-diyl) diacetate",29265,DTXSID3026223,CC(=O)OCCOCCOCCOC(C)=O,"InChI=1S/C10H18O6/c1-9(11)15-7-5-13-3-4-14-6-8-16-10(2)12/h3-8H2,1-2H3",OVOUKWFJRHALDD-UHFFFAOYSA-N,?,,-50.0,102011
102015,111-27-3,111-27-3,CCCCCCO,1-HEXANOL,1-Hexanol,hexan-1-ol,29269,DTXSID8021931,CCCCCCO,"InChI=1S/C6H14O/c1-2-3-4-5-6-7/h7H,2-6H2,1H3",ZSIAUFGUXNUGDI-UHFFFAOYSA-N,?,,-44.6,102015
102019,111-34-2,111-34-2,CCCCOC=C,BUTYL VINYL ETHER,Butyl vinyl ether,butyl vinyl ether,29273,DTXSID5051575,CCCCOC=C,"InChI=1S/C6H12O/c1-3-5-6-7-4-2/h4H,2-3,5-6H2,1H3",UZKWTJUDCOPSNM-UHFFFAOYSA-N,?,,-92.0,102019
102023,111-42-2,111-42-2,OCCNCCO,DIETHANOLAMINE,Diethanolamine,"2,2'-iminodiethanol",29277,DTXSID3021932,OCCNCCO,"InChI=1S/C4H11NO2/c6-3-1-5-2-4-7/h5-7H,1-4H2",ZBCBWPMODOFKDW-UHFFFAOYSA-N,?,,28.0,102023
102027,111-47-7,111-47-7,CCCSCCC,DI-N-PROPYLSULFIDE,Propyl sulfide,dipropyl sulfide,29281,DTXSID3021934,CCCSCCC,"InChI=1S/C6H14S/c1-3-5-7-6-4-2/h3-6H2,1-2H3",ZERULLAPCVRMCO-UHFFFAOYSA-N,?,,-102.5,102027
102031,111-60-4,111-60-4,CCCCCCCCCCCCCCCCCC(=O)OCCO,"Octadecanoic acid, 2-hydroxyethyl ester",2-Hydroxyethyl octadecanoate,2-hydroxyethyl octadecanoate,29285,DTXSID5026881,CCCCCCCCCCCCCCCCCC(=O)OCCO,"InChI=1S/C20H40O3/c1-2-3-4-5-6-7-8-9-10-11-12-13-14-15-16-17-20(22)23-19-18-21/h21H,2-19H2,1H3",RFVNOJDQRGSOEL-UHFFFAOYSA-N,?,,60.5,102031
102035,111-65-9,111-65-9,CCCCCCCC,OCTANE,Octane,octane,29289,DTXSID0026882,CCCCCCCC,"InChI=1S/C8H18/c1-3-5-7-8-6-4-2/h3-8H2,1-2H3",TVMXDCGIABBOFY-UHFFFAOYSA-N,?,,-56.8,102035
102039,111-69-3,111-69-3,N#CCCCCC#N,ADIPONITRILE,Hexanedinitrile,hexanedinitrile,29293,DTXSID3021936,N#CCCCCC#N,InChI=1S/C6H8N2/c7-5-3-1-2-4-6-8/h1-4H2,BTGRAWJCKBQKAO-UHFFFAOYSA-N,?,,1.0,102039
102043,111-76-2,111-76-2,CCCCOCCO,2-BUTOXYETHANOL,2-Butoxyethanol,C6H14O2,29297,DTXSID1024097,CCCCOCCO,"InChI=1S/C6H14O2/c1-2-3-5-8-6-4-7/h7H,2-6H2,1H3",POAOYUHQDCAZBD-UHFFFAOYSA-N,?,,-74.8,102043
102047,111-83-1,111-83-1,CCCCCCCCBr,1-BROMOOCTANE,1-Bromooctane,1-bromooctane,29301,DTXSID3021938,CCCCCCCCBr,"InChI=1S/C8H17Br/c1-2-3-4-5-6-7-8-9/h2-8H2,1H3",VMKOFRJSULQZRM-UHFFFAOYSA-N,?,,-55.0,102047
102051,111-87-5,111-87-5,CCCCCCCCO,1-OCTANOL,1-Octanol,octan-1-ol,29305,DTXSID7021940,CCCCCCCCO,"InChI=1S/C8H18O/c1-2-3-4-5-6-7-8-9/h9H,2-8H2,1H3",KBPLFHHGFOOTCA-UHFFFAOYSA-N,?,,-15.5,102051
102055,111-92-2,111-92-2,CCCCNCCCC,DIBUTYLAMINE,N-Butyl-1-butanamine,N-butylbutan-1-amine,29309,DTXSID7024952,CCCCNCCCC,"InChI=1S/C8H19N/c1-3-5-7-9-8-6-4-2/h9H,3-8H2,1-2H3",JQVDAXLFBXTEQA-UHFFFAOYSA-N,?,,-62.0,102055
102059,112-07-2,112-07-2,CCCCOCCOC(C)=O,2-BUTOXYETHANOL ACETATE,2-Butoxyethyl acetate,2-butoxyethyl acetate,29313,DTXSID1026904,CCCCOCCOC(C)=O,"InChI=1S/C8H16O3/c1-3-4-5-10-6-7-11-8(2)9/h3-7H2,1-2H3",NQBXSWAWVZHKBZ-UHFFFAOYSA-N,?,,-63.0,102059
102063,112-14-1,112-14-1,CCCCCCCCOC(C)=O,"Acetic acid, octyl ester",Octyl acetate,octyl acetate,29317,DTXSID8044202,CCCCCCCCOC(C)=O,"InChI=1S/C10H20O2/c1-3-4-5-6-7-8-9-12-10(2)11/h3-9H2,1-2H3",YLYBTZIQSIBWLI-UHFFFAOYSA-N,?,,-38.5,102063
102067,112-18-5,112-18-5,CCCCCCCCCCCCN(C)C,"N,N-DIMETHYLDODECYLAMINE","N,N-Dimethyldodecan-1-amine","N,N-dimethyldodecan-1-amine",29321,DTXSID1026906,CCCCCCCCCCCCN(C)C,"InChI=1S/C14H31N/c1-4-5-6-7-8-9-10-11-12-13-14-15(2)3/h4-14H2,1-3H3",YWFWDNVOPHGWMX-UHFFFAOYSA-N,?,,22.0,102067
102071,112-26-5,112-26-5,ClCCOCCOCCCl,"1,2-BIS(2-CHLOROETHOXY)ETHANE","1,2-Bis(2-chloroethoxy)ethane",1-chloro-2-[2-(2-chloroethoxy)ethoxy]ethane,29325,DTXSID8047000,ClCCOCCOCCCl,InChI=1S/C6H12Cl2O2/c7-1-3-9-5-6-10-4-2-8/h1-6H2,AGYUOJIYYGGHKV-UHFFFAOYSA-N,?,,-31.5,102071
102075,112-31-2,112-31-2,CCCCCCCCCC=O,N-DECANAL,Decanal,decanal,29329,DTXSID4021553,CCCCCCCCCC=O,"InChI=1S/C10H20O/c1-2-3-4-5-6-7-8-9-10-11/h10H,2-9H2,1H3",KSMVZQYAVGTKIV-UHFFFAOYSA-N,?,,-5.0,102075
102079,112-36-7,112-36-7,CCOCCOCCOCC,BIS (2-ETHOXY ETHYL)  ETHER,Diethylene glycol diethyl ether,1-ethoxy-2-(2-ethoxyethoxy)ethane,29333,DTXSID3025047,CCOCCOCCOCC,"InChI=1S/C8H18O3/c1-3-9-5-7-11-8-6-10-4-2/h3-8H2,1-2H3",RRQYJINTUHWNHW-UHFFFAOYSA-N,?,,-45.0,102079
102083,112-40-3,112-40-3,CCCCCCCCCCCC,DODECANE,Dodecane,dodecane,29337,DTXSID0026913,CCCCCCCCCCCC,"InChI=1S/C12H26/c1-3-5-7-9-11-12-10-8-6-4-2/h3-12H2,1-2H3",SNRUBQQJIBEYMU-UHFFFAOYSA-N,?,,-9.6,102083
102087,112-44-7,112-44-7,CCCCCCCCCCC=O,Undecanal,Undecanal,undecanal,29341,DTXSID4021688,CCCCCCCCCCC=O,"InChI=1S/C11H22O/c1-2-3-4-5-6-7-8-9-10-11-12/h11H,2-10H2,1H3",KMPQYAYAQWNLME-UHFFFAOYSA-N,?,,-4.0,102087
102091,112-49-2,112-49-2,COCCOCCOCCOC,"2,5,8,11-TETRAOXADODECANE",Triethylene glycol dimethyl ether,"2,5,8,11-tetraoxadodecane",29345,DTXSID8026224,COCCOCCOCCOC,"InChI=1S/C8H18O4/c1-9-3-5-11-7-8-12-6-4-10-2/h3-8H2,1-2H3",YFNKIDBQEZZDLK-UHFFFAOYSA-N,?,,-45.0,102091
102095,112-54-9,112-54-9,CCCCCCCCCCCC=O,DODECANAL,Dodecanal,dodecanal,29349,DTXSID6021589,CCCCCCCCCCCC=O,"InChI=1S/C12H24O/c1-2-3-4-5-6-7-8-9-10-11-12-13/h12H,2-11H2,1H3",HFJRKMMYBMWEAD-UHFFFAOYSA-N,?,,44.5,102095
102099,112-60-7,112-60-7,OCCOCCOCCOCCO,TETRAETHYLENE GLYCOL,Tetraethylene glycol,"2,2'-[oxybis(ethane-2,1-diyloxy)]diethanol",29353,DTXSID9026922,OCCOCCOCCOCCO,"InChI=1S/C8H18O5/c9-1-3-11-5-7-13-8-6-12-4-2-10/h9-10H,1-8H2",UWHCKJMYHZGTIT-UHFFFAOYSA-N,?,,-6.2,102099
102103,112-64-1,112-64-1,CCCCCCCCCCCCCC(=O)Cl,Tetradecanoyl chloride,Tetradecanoyl chloride,Tetradecanoyl chloride,29357,DTXSID3059422,CCCCCCCCCCCCCC(=O)Cl,"InChI=1S/C14H27ClO/c1-2-3-4-5-6-7-8-9-10-11-12-13-14(15)16/h2-13H2,1H3",LPWCRLGKYWVLHQ-UHFFFAOYSA-N,?,,-1.0,102103
102107,112-70-9,112-70-9,CCCCCCCCCCCCCO,1-TRIDECANOL,1-Tridecanol,tridecan-1-ol,29361,DTXSID2021947,CCCCCCCCCCCCCO,"InChI=1S/C13H28O/c1-2-3-4-5-6-7-8-9-10-11-12-13-14/h14H,2-13H2,1H3",XFRVVPUIAFSTFO-UHFFFAOYSA-N,?,,32.5,102107
102111,112-76-5,112-76-5,CCCCCCCCCCCCCCCCCC(=O)Cl,Octadecanoyl chloride,Octadecanoyl chloride,octadecanoyl chloride,29365,DTXSID9051583,CCCCCCCCCCCCCCCCCC(=O)Cl,"InChI=1S/C18H35ClO/c1-2-3-4-5-6-7-8-9-10-11-12-13-14-15-16-17-18(19)20/h2-17H2,1H3",WTBAHSZERDXKKZ-UHFFFAOYSA-N,?,,23.0,102111
102116,112-85-6,112-85-6,CCCCCCCCCCCCCCCCCCCCCC(O)=O,DOCOSANOIC ACID,Docosanoic acid,docosanoic acid,29370,DTXSID3026930,CCCCCCCCCCCCCCCCCCCCCC(O)=O,"InChI=1S/C22H44O2/c1-2-3-4-5-6-7-8-9-10-11-12-13-14-15-16-17-18-19-20-21-22(23)24/h2-21H2,1H3,(H,23,24)",UKMSUNONTOPOIO-UHFFFAOYSA-N,?,,81.0,102116
102120,112-90-3,112-90-3,CCCCCCCC/C=C\CCCCCCCCN,cis-9-Octadecenylamine,(Z)-9-Octadecenylamine,C18H37N,29374,DTXSID8026933,CCCCCCCCC=CCCCCCCCCN,"InChI=1S/C18H37N/c1-2-3-4-5-6-7-8-9-10-11-12-13-14-15-16-17-18-19/h9-10H,2-8,11-19H2,1H3/b10-9+",QGLWBTPVKHMVHM-MDZDMXLPSA-N,?,,246.0,102120
102124,112-96-9,112-96-9,CCCCCCCCCCCCCCCCCCN=C=O,"Octadecane, 1-isocyanato-",Octadecyl isocyanate,1-isocyanatooctadecane,29378,DTXSID3038727,CCCCCCCCCCCCCCCCCCN=C=O,"InChI=1S/C19H37NO/c1-2-3-4-5-6-7-8-9-10-11-12-13-14-15-16-17-18-20-19-21/h2-18H2,1H3",QWDQYHPOSSHSAW-UHFFFAOYSA-N,?,,20.0,102124
102128,113-53-1,25627-37-6,CN(C)CC/C=C1\c2ccccc2CSc2ccccc2\1,DOLSULEPINE,Dothiepin,"(3E)-3-(dibenzo[b,e]thiepin-11(6H)-ylidene)-N,N-dimethylpropan-1-amine",29382,DTXSID30873547,CN(C)CCC=C1c2ccccc2CSc2ccccc21,"InChI=1S/C19H21NS/c1-20(2)13-7-11-17-16-9-4-3-8-15(16)14-21-19-12-6-5-10-18(17)19/h3-6,8-12H,7,13-14H2,1-2H3/b17-11-",PHTUQLWOUWZIMZ-BOPFTXTBSA-N,?,,56.0,102128
102133,114-26-1,114-26-1,CNC(=O)Oc1ccccc1OC(C)C,PROPOXUR,Propoxur,2-(propan-2-yloxy)phenyl methylcarbamate,29386,DTXSID7021948,CNC(=O)Oc1ccccc1OC(C)C,"InChI=1S/C11H15NO3/c1-8(2)14-9-6-4-5-7-10(9)15-11(13)12-3/h4-8H,1-3H3,(H,12,13)",ISRUGXGCCGIOQO-UHFFFAOYSA-N,?,,87.0,102133